 Entering Gaussian System, Link 0=g16
 Input=1_pleiokomenine_1a_c_15.gjf
 Output=1_pleiokomenine_1a_c_15.log
 Initial command:
 /opt/gaussian/g16/l1.exe "/data/abenidd/Elvis/pleiokomenine_C/NMR_HF/1a/1_pleiokomenine_1a_c_15/Gau-24588.inp" -scrdir="/data/abenidd/Elvis/pleiokomenine_C/NMR_HF/1a/1_pleiokomenine_1a_c_15/"
 Entering Link 1 = /opt/gaussian/g16/l1.exe PID=     24590.
  
 Copyright (c) 1988-2017, Gaussian, Inc.  All Rights Reserved.
  
 This is part of the Gaussian(R) 16 program.  It is based on
 the Gaussian(R) 09 system (copyright 2009, Gaussian, Inc.),
 the Gaussian(R) 03 system (copyright 2003, Gaussian, Inc.),
 the Gaussian(R) 98 system (copyright 1998, Gaussian, Inc.),
 the Gaussian(R) 94 system (copyright 1995, Gaussian, Inc.),
 the Gaussian 92(TM) system (copyright 1992, Gaussian, Inc.),
 the Gaussian 90(TM) system (copyright 1990, Gaussian, Inc.),
 the Gaussian 88(TM) system (copyright 1988, Gaussian, Inc.),
 the Gaussian 86(TM) system (copyright 1986, Carnegie Mellon
 University), and the Gaussian 82(TM) system (copyright 1983,
 Carnegie Mellon University). Gaussian is a federally registered
 trademark of Gaussian, Inc.
  
 This software contains proprietary and confidential information,
 including trade secrets, belonging to Gaussian, Inc.
  
 This software is provided under written license and may be
 used, copied, transmitted, or stored only in accord with that
 written license.
  
 The following legend is applicable only to US Government
 contracts under FAR:
  
                    RESTRICTED RIGHTS LEGEND
  
 Use, reproduction and disclosure by the US Government is
 subject to restrictions as set forth in subparagraphs (a)
 and (c) of the Commercial Computer Software - Restricted
 Rights clause in FAR 52.227-19.
  
 Gaussian, Inc.
 340 Quinnipiac St., Bldg. 40, Wallingford CT 06492
  
  
 ---------------------------------------------------------------
 Warning -- This program may not be used in any manner that
 competes with the business of Gaussian, Inc. or will provide
 assistance to any competitor of Gaussian, Inc.  The licensee
 of this program is prohibited from giving any competitor of
 Gaussian, Inc. access to this program.  By using this program,
 the user acknowledges that Gaussian, Inc. is engaged in the
 business of creating and licensing software in the field of
 computational chemistry and represents and warrants to the
 licensee that it is not a competitor of Gaussian, Inc. and that
 it will not use this program in any manner prohibited above.
 ---------------------------------------------------------------
  

 Cite this work as:
 Gaussian 16, Revision B.01,
 M. J. Frisch, G. W. Trucks, H. B. Schlegel, G. E. Scuseria, 
 M. A. Robb, J. R. Cheeseman, G. Scalmani, V. Barone, 
 G. A. Petersson, H. Nakatsuji, X. Li, M. Caricato, A. V. Marenich, 
 J. Bloino, B. G. Janesko, R. Gomperts, B. Mennucci, H. P. Hratchian, 
 J. V. Ortiz, A. F. Izmaylov, J. L. Sonnenberg, D. Williams-Young, 
 F. Ding, F. Lipparini, F. Egidi, J. Goings, B. Peng, A. Petrone, 
 T. Henderson, D. Ranasinghe, V. G. Zakrzewski, J. Gao, N. Rega, 
 G. Zheng, W. Liang, M. Hada, M. Ehara, K. Toyota, R. Fukuda, 
 J. Hasegawa, M. Ishida, T. Nakajima, Y. Honda, O. Kitao, H. Nakai, 
 T. Vreven, K. Throssell, J. A. Montgomery, Jr., J. E. Peralta, 
 F. Ogliaro, M. J. Bearpark, J. J. Heyd, E. N. Brothers, K. N. Kudin, 
 V. N. Staroverov, T. A. Keith, R. Kobayashi, J. Normand, 
 K. Raghavachari, A. P. Rendell, J. C. Burant, S. S. Iyengar, 
 J. Tomasi, M. Cossi, J. M. Millam, M. Klene, C. Adamo, R. Cammi, 
 J. W. Ochterski, R. L. Martin, K. Morokuma, O. Farkas, 
 J. B. Foresman, and D. J. Fox, Gaussian, Inc., Wallingford CT, 2016.
 
 ******************************************
 Gaussian 16:  ES64L-G16RevB.01 20-Dec-2017
                30-May-2024 
 ******************************************
 %nprocshared=8
 Will use up to    8 processors via shared memory.
 ----------------------------------------------
 # nmr=giao hf/sto-3g pop=nbo geom=connectivity
 ----------------------------------------------
 1/38=1,57=2,172=1/1;
 2/12=2,17=6,18=5,40=1/2;
 3/6=3,11=9,25=1,30=1/1,2,3,8;
 4//1;
 5/5=2,38=5/2;
 8/6=1,10=90,11=11/1;
 10/13=100,45=16/2;
 6/7=2,8=2,9=2,10=2,28=1,40=1,64=1/1,7;
 99/9=1/99;
 ------------------
 pleiokomenine_C_1a
 ------------------
 Symbolic Z-matrix:
 Charge =  0 Multiplicity = 1
 C                     0.        0.        0. 
 C                     1.4016    0.        0. 
 C                     2.0979    1.228     0. 
 C                     1.4178    2.4522   -0.0032 
 C                     0.0349    2.4463   -0.0257 
 C                    -0.6602    1.2192   -0.006 
 N                    -0.8484    3.5628   -0.095 
 C                    -2.136     1.5217    0.0808 
 C                    -2.0934    2.9342   -0.6077 
 C                    -3.177     0.6565   -0.6305 
 C                    -1.944     2.7426   -2.1868 
 C                    -3.0888    1.9124   -2.7696 
 C                    -4.023     1.4679   -1.6387 
 N                    -4.0919    0.2503    0.4361 
 C                    -5.0126   -0.7826    0.0215 
 C                    -5.9261   -0.1702   -1.0541 
 C                    -5.1524    0.5542   -2.1719 
 C                    -2.4925    1.3661    1.5834 
 C                    -3.3047    0.0698    1.6321 
 C                    -4.5759    2.7736   -0.9653 
 C                    -3.4235    3.7041   -0.4612 
 C                    -3.7266    4.318     0.8962 
 O                    -4.6912    4.0412    1.5985 
 O                    -2.8331    5.3029    1.193 
 C                    -3.033     5.9126    2.4676 
 C                    -0.318     4.7795   -0.6895 
 C                     2.1644   -1.3059   -0.0184 
 C                     2.2895   -1.903    -1.4014 
 C                     3.2505   -1.4074   -2.2925 
 C                     1.4422   -2.9524   -1.8104 
 C                     1.5391   -3.5045   -3.0937 
 C                     2.4758   -2.9929   -3.976 
 C                     3.3355   -1.9614   -3.5609 
 N                     2.701    -3.3695   -5.3267 
 C                     4.3178   -1.6652   -4.668 
 C                     3.4283   -2.1961   -5.8655 
 C                     4.7505   -0.2199   -4.9703 
 C                     2.3819   -1.0641   -6.2629 
 C                     3.0942    0.2064   -6.7484 
 C                     4.6106    0.0533   -6.5068 
 N                     6.1537   -0.0915   -4.4028 
 C                     6.9432    1.0541   -4.9798 
 C                     6.8271    1.2439   -6.4796 
 C                     5.3647    1.3271   -6.9007 
 C                     5.6314   -2.4057   -4.3055 
 C                     6.7698   -1.4395   -4.6058 
 C                     5.0481   -1.1377   -7.4268 
 C                     4.2398   -2.4295   -7.1491 
 C                     5.1152   -3.6693   -7.1955 
 O                     6.3374   -3.6607   -7.1087 
 O                     4.3674   -4.7841   -7.4186 
 C                     5.1163   -5.9994   -7.4339 
 C                     1.574    -3.9556   -6.0371 
 O                     6.0746    0.151    -3.0378 
 H                    -0.5545   -0.9324    0.0174 
 H                     3.187     1.2335   -0.005 
 H                     1.9815    3.3776   -0.0017 
 H                    -2.7065   -0.214    -1.1081 
 H                    -1.925     3.7217   -2.684 
 H                    -0.9932    2.2696   -2.462 
 H                    -3.6354    2.5017   -3.5162 
 H                    -2.6773    1.045    -3.301 
 H                    -4.4877   -1.6626   -0.3685 
 H                    -5.6336   -1.1121    0.8621 
 H                    -6.554    -0.9543   -1.4927 
 H                    -6.6094    0.5451   -0.5784 
 H                    -4.7151   -0.2122   -2.8259 
 H                    -5.852     1.1283   -2.791 
 H                    -3.111     2.1831    1.9515 
 H                    -1.6292    1.3009    2.2564 
 H                    -2.6611   -0.8154    1.5798 
 H                    -3.917     0.0196    2.5372 
 H                    -5.1754    3.331    -1.698 
 H                    -5.2705    2.5209   -0.1577 
 H                    -3.4117    4.5718   -1.1386 
 H                    -2.2292    6.6369    2.626 
 H                    -3.9888    6.445     2.4899 
 H                    -2.9855    5.1644    3.2652 
 H                     0.1515    4.5936   -1.662 
 H                     0.4222    5.2379   -0.025 
 H                    -1.113     5.5167   -0.8383 
 H                     1.6741   -2.0188    0.6578 
 H                     3.1672   -1.1639    0.4061 
 H                     3.9331   -0.6171   -1.9894 
 H                     0.698    -3.3483   -1.1231 
 H                     0.8784   -4.315    -3.3778 
 H                     4.1616    0.5193   -4.4094 
 H                     1.7114   -1.4193   -7.0561 
 H                     1.7252   -0.8047   -5.4231 
 H                     2.6923    1.0799   -6.2199 
 H                     2.8841    0.3689   -7.8132 
 H                     6.5676    1.9515   -4.4709 
 H                     7.983     0.8976   -4.6717 
 H                     7.3366    2.1723   -6.7633 
 H                     7.3446    0.4387   -7.0093 
 H                     4.9019    2.2008   -6.4236 
 H                     5.3031    1.4949   -7.9827 
 H                     5.6753   -2.6225   -3.2284 
 H                     5.7569   -3.3766   -4.782 
 H                     7.138    -1.5027   -5.6275 
 H                     7.6107   -1.5387   -3.9116 
 H                     6.1225   -1.3097   -7.3723 
 H                     4.8774   -0.8566   -8.4764 
 H                     3.55     -2.5541   -7.9979 
 H                     5.6448   -6.1382   -6.4854 
 H                     5.8175   -6.0043   -8.274 
 H                     4.4145   -6.8279   -7.5628 
 H                     1.8016   -4.0668   -7.1016 
 H                     1.3581   -4.9576   -5.6513 
 H                     0.6693   -3.3432   -5.9507 
 
 Stoichiometry    C45H56N4O5
 Framework group  C1[X(C45H56N4O5)]
 Deg. of freedom   324
 Full point group                 C1      NOp   1
 Largest Abelian subgroup         C1      NOp   1
 Largest concise Abelian subgroup C1      NOp   1
                         Standard orientation:                         
 ---------------------------------------------------------------------
 Center     Atomic      Atomic             Coordinates (Angstroms)
 Number     Number       Type             X           Y           Z
 ---------------------------------------------------------------------
      1          6           0        2.203382    0.225937    1.880377
      2          6           0        1.184818   -0.580641    2.406155
      3          6           0        1.182651   -1.965701    2.133356
      4          6           0        2.177413   -2.555122    1.343264
      5          6           0        3.167570   -1.750928    0.808647
      6          6           0        3.180088   -0.370473    1.097633
      7          7           0        4.229394   -2.126366   -0.064949
      8          6           0        4.424511    0.222251    0.483535
      9          6           0        4.593772   -0.822914   -0.678353
     10          6           0        4.434145    1.630159   -0.113040
     11          6           0        3.536589   -0.499329   -1.831716
     12          6           0        3.706812    0.919427   -2.377253
     13          6           0        4.826397    1.630020   -1.608597
     14          7           0        5.519992    2.309367    0.593562
     15          6           0        5.536861    3.734379    0.357933
     16          6           0        5.859384    3.943528   -1.131586
     17          6           0        4.978496    3.098807   -2.071442
     18          6           0        5.447594    0.308561    1.647564
     19          6           0        5.532795    1.807173    1.946455
     20          6           0        6.134930    0.792392   -1.832517
     21          6           0        5.956977   -0.698380   -1.392172
     22          6           0        7.176980   -1.236092   -0.661599
     23          8           0        8.151328   -0.572956   -0.328144
     24          8           0        7.095282   -2.587879   -0.511736
     25          6           0        8.192946   -3.168190    0.191592
     26          6           0        4.015616   -3.310530   -0.881753
     27          6           0        0.084535    0.030180    3.245115
     28          6           0       -1.013323    0.661009    2.419506
     29          6           0       -1.999301   -0.144841    1.834994
     30          6           0       -1.053481    2.056099    2.223170
     31          6           0       -2.057453    2.650923    1.449034
     32          6           0       -3.014359    1.844805    0.855653
     33          6           0       -2.987196    0.455939    1.069418
     34          7           0       -4.076695    2.236041   -0.001848
     35          6           0       -4.189471   -0.167316    0.402778
     36          6           0       -4.420642    0.964248   -0.680362
     37          6           0       -4.077469   -1.525867   -0.310875
     38          6           0       -3.414697    0.723430   -1.890480
     39          6           0       -3.678538   -0.626206   -2.573211
     40          6           0       -4.710236   -1.415287   -1.740008
     41          7           0       -4.731851   -2.528283    0.624250
     42          6           0       -5.153452   -3.807393   -0.050115
     43          6           0       -5.817515   -3.649605   -1.404008
     44          6           0       -4.952633   -2.806471   -2.333506
     45          6           0       -5.248191   -0.388431    1.514314
     46          6           0       -5.844503   -1.769370    1.275363
     47          6           0       -6.023708   -0.563219   -1.811133
     48          6           0       -5.813329    0.892421   -1.325266
     49          6           0       -6.983746    1.389997   -0.495734
     50          8           0       -7.820586    0.665695    0.030065
     51          8           0       -7.020624    2.750119   -0.474119
     52          6           0       -8.071924    3.295811    0.322766
     53          6           0       -3.889555    3.469568   -0.751315
     54          8           0       -3.822830   -2.898419    1.606577
     55          1           0        2.233371    1.289624    2.092071
     56          1           0        0.390688   -2.596043    2.535422
     57          1           0        2.148279   -3.621555    1.153538
     58          1           0        3.471930    2.134611    0.051012
     59          1           0        3.650573   -1.214510   -2.657384
     60          1           0        2.499937   -0.622719   -1.494650
     61          1           0        3.934487    0.882622   -3.449758
     62          1           0        2.759105    1.464068   -2.280724
     63          1           0        4.579478    4.200940    0.618236
     64          1           0        6.316083    4.219610    0.956417
     65          1           0        5.752329    5.004495   -1.385218
     66          1           0        6.911519    3.686252   -1.309532
     67          1           0        3.985933    3.567513   -2.109521
     68          1           0        5.381367    3.141565   -3.090354
     69          1           0        6.435083   -0.050086    1.361616
     70          1           0        5.164256   -0.245072    2.550713
     71          1           0        4.673071    2.154853    2.530004
     72          1           0        6.455827    2.053056    2.479551
     73          1           0        6.395617    0.809347   -2.899615
     74          1           0        6.980968    1.263764   -1.322053
     75          1           0        5.931206   -1.290909   -2.319619
     76          1           0        7.993261   -4.237026    0.307828
     77          1           0        9.118269   -3.048542   -0.380215
     78          1           0        8.290877   -2.725062    1.187721
     79          1           0        3.062354   -3.274052   -1.420925
     80          1           0        4.031885   -4.211660   -0.259431
     81          1           0        4.813845   -3.419849   -1.622368
     82          1           0        0.520892    0.774179    3.924766
     83          1           0       -0.352076   -0.729539    3.907058
     84          1           0       -2.004107   -1.220291    1.995523
     85          1           0       -0.296431    2.690304    2.678815
     86          1           0       -2.066382    3.726883    1.321059
     87          1           0       -3.037189   -1.870436   -0.394053
     88          1           0       -3.510182    1.522588   -2.636893
     89          1           0       -2.368348    0.757274   -1.562128
     90          1           0       -2.736901   -1.180791   -2.671165
     91          1           0       -4.045829   -0.462954   -3.594384
     92          1           0       -4.231921   -4.393094   -0.164641
     93          1           0       -5.803556   -4.330260    0.660222
     94          1           0       -5.963159   -4.641022   -1.848849
     95          1           0       -6.815797   -3.216099   -1.293373
     96          1           0       -3.994976   -3.317838   -2.496470
     97          1           0       -5.435143   -2.730137   -3.315357
     98          1           0       -4.775622   -0.414507    2.506822
     99          1           0       -6.000277    0.394860    1.593507
    100          1           0       -6.700912   -1.764978    0.604557
    101          1           0       -6.113833   -2.286294    2.202249
    102          1           0       -6.845036   -1.052463   -1.288686
    103          1           0       -6.362596   -0.520174   -2.856656
    104          1           0       -5.830807    1.526850   -2.224713
    105          1           0       -7.990370    2.949184    1.357865
    106          1           0       -9.046357    3.032401   -0.099809
    107          1           0       -7.972864    4.384694    0.314255
    108          1           0       -4.687062    3.600286   -1.489030
    109          1           0       -3.931220    4.334474   -0.080748
    110          1           0       -2.933228    3.485291   -1.286266
 ---------------------------------------------------------------------
 Rotational constants (GHZ):           0.1056446           0.0253507           0.0234750
 Standard basis: STO-3G (5D, 7F)
 There are   326 symmetry adapted cartesian basis functions of A   symmetry.
 There are   326 symmetry adapted basis functions of A   symmetry.
   326 basis functions,   978 primitive gaussians,   326 cartesian basis functions
   197 alpha electrons      197 beta electrons
       nuclear repulsion energy      7853.1907862055 Hartrees.
 NAtoms=  110 NActive=  110 NUniq=  110 SFac= 1.00D+00 NAtFMM=   60 NAOKFM=T Big=T
 Integral buffers will be    131072 words long.
 Raffenetti 1 integral format.
 Two-electron integral symmetry is turned on.
 One-electron integrals computed using PRISM.
 NBasis=   326 RedAO= T EigKep=  1.72D-01  NBF=   326
 NBsUse=   326 1.00D-06 EigRej= -1.00D+00 NBFU=   326
 ExpMin= 1.69D-01 ExpMax= 1.31D+02 ExpMxC= 1.31D+02 IAcc=3 IRadAn=         5 AccDes= 0.00D+00
 Harris functional with IExCor=  205 and IRadAn=       5 diagonalized for initial guess.
 HarFok:  IExCor=  205 AccDes= 0.00D+00 IRadAn=         5 IDoV= 1 UseB2=F ITyADJ=14
 ICtDFT=  3500011 ScaDFX=  1.000000  1.000000  1.000000  1.000000
 FoFCou: FMM=F IPFlag=           0 FMFlag=      100000 FMFlg1=        2001
         NFxFlg=           0 DoJE=T BraDBF=F KetDBF=T FulRan=T
         wScrn=  0.000000 ICntrl=       500 IOpCl=  0 I1Cent=   200000004 NGrid=           0
         NMat0=    1 NMatS0=      1 NMatT0=    0 NMatD0=    1 NMtDS0=    0 NMtDT0=    0
 Petite list used in FoFCou.
 Requested convergence on RMS density matrix=1.00D-08 within 128 cycles.
 Requested convergence on MAX density matrix=1.00D-06.
 Requested convergence on             energy=1.00D-06.
 No special actions if energy rises.
 Integral accuracy reduced to 1.0D-05 until final iterations.
 Initial convergence to 1.0D-05 achieved.  Increase integral accuracy.
 SCF Done:  E(RHF) =  -2300.22220969     A.U. after   16 cycles
            NFock= 16  Conv=0.36D-08     -V/T= 2.0092
 Range of M.O.s used for correlation:     1   326
 NBasis=   326 NAE=   197 NBE=   197 NFC=     0 NFV=     0
 NROrb=    326 NOA=   197 NOB=   197 NVA=   129 NVB=   129
          Differentiating once with respect to magnetic field using GIAOs.
          Electric field/nuclear overlap derivatives assumed to be zero.
 FoFCou: FMM=F IPFlag=           0 FMFlag=      100000 FMFlg1=        2001
         NFxFlg=           0 DoJE=F BraDBF=F KetDBF=T FulRan=T
         wScrn=  0.000000 ICntrl=      6100 IOpCl=  0 I1Cent=           7 NGrid=         110
         NMat0=    1 NMatS0=      1 NMatT0=    0 NMatD0=    1 NMtDS0=    0 NMtDT0=    0
 Symmetry not used in FoFCou.
 FoFJK:  IHMeth= 1 ICntrl=    6127 DoSepK=F KAlg= 0 I1Cent=           0 FoldK=F
 IRaf=         1 NMat=       1 IRICut=       1 DoRegI=T DoRafI=F ISym2E= 0 IDoP0=0 IntGTp=1.
          There are     3 degrees of freedom in the 1st order CPHF.  IDoFFX=0 NUNeed=     3.
      3 vectors produced by pass  0 Test12= 8.47D-13 3.33D-08 XBig12= 2.25D+02 2.52D+00.
 AX will form     3 AO Fock derivatives at one time.
      3 vectors produced by pass  1 Test12= 8.47D-13 3.33D-08 XBig12= 8.04D-01 3.17D-01.
      3 vectors produced by pass  2 Test12= 8.47D-13 3.33D-08 XBig12= 1.85D-02 3.42D-02.
      3 vectors produced by pass  3 Test12= 8.47D-13 3.33D-08 XBig12= 3.62D-04 5.89D-03.
      3 vectors produced by pass  4 Test12= 8.47D-13 3.33D-08 XBig12= 2.01D-05 1.25D-03.
      3 vectors produced by pass  5 Test12= 8.47D-13 3.33D-08 XBig12= 4.07D-07 8.03D-05.
      3 vectors produced by pass  6 Test12= 8.47D-13 3.33D-08 XBig12= 1.05D-08 1.66D-05.
      3 vectors produced by pass  7 Test12= 8.47D-13 3.33D-08 XBig12= 3.67D-10 3.53D-06.
      3 vectors produced by pass  8 Test12= 8.47D-13 3.33D-08 XBig12= 7.68D-12 3.21D-07.
      2 vectors produced by pass  9 Test12= 8.47D-13 3.33D-08 XBig12= 1.37D-13 7.23D-08.
 InvSVY:  IOpt=1 It=  1 EMax= 5.33D-15
 Solved reduced A of dimension    29 with     3 vectors.
 Calculating GIAO nuclear magnetic shielding tensors.
 SCF GIAO Magnetic shielding tensor (ppm):
      1  C    Isotropic =   126.7332   Anisotropy =   146.6874
   XX=   148.8063   YX=   -17.8509   ZX=    48.5048
   XY=    -8.2605   YY=    40.7320   ZY=   -30.3711
   XZ=    39.9223   YZ=   -30.8211   ZZ=   190.6614
   Eigenvalues:    34.5461   121.1287   224.5249
      2  C    Isotropic =   120.3838   Anisotropy =   158.5598
   XX=   109.2547   YX=    -2.6184   ZX=    81.9035
   XY=     4.4173   YY=    91.1586   ZY=   -30.1087
   XZ=    84.0471   YZ=   -30.0507   ZZ=   160.7381
   Eigenvalues:    40.8225    94.2386   226.0903
      3  C    Isotropic =   118.7614   Anisotropy =   153.2893
   XX=    99.1231   YX=   -39.4755   ZX=    75.0988
   XY=   -44.6127   YY=    84.1732   ZY=     2.2497
   XZ=    71.9625   YZ=     6.6155   ZZ=   172.9880
   Eigenvalues:    27.3804   107.9496   220.9543
      4  C    Isotropic =   133.1838   Anisotropy =   144.5016
   XX=   153.5771   YX=   -12.6557   ZX=    50.6830
   XY=   -15.8504   YY=    55.6370   ZY=   -24.0282
   XZ=    46.3475   YZ=   -32.6367   ZZ=   190.3374
   Eigenvalues:    49.6990   120.3343   229.5182
      5  C    Isotropic =   108.0814   Anisotropy =   128.3053
   XX=   101.4419   YX=    -5.0758   ZX=    66.6223
   XY=    10.5623   YY=    83.2617   ZY=   -33.1181
   XZ=    62.6399   YZ=   -32.8919   ZZ=   139.5406
   Eigenvalues:    40.5844    90.0415   193.6183
      6  C    Isotropic =   117.9964   Anisotropy =   141.6831
   XX=   108.8753   YX=   -19.3820   ZX=    65.0847
   XY=   -33.4114   YY=    76.9136   ZY=    -4.0312
   XZ=    65.0697   YZ=    -4.4278   ZZ=   168.2004
   Eigenvalues:    50.6674    90.8700   212.4518
      7  N    Isotropic =   272.5982   Anisotropy =    82.5207
   XX=   277.6027   YX=   -11.0976   ZX=   -46.3309
   XY=     2.1937   YY=   244.6901   ZY=    -9.8098
   XZ=   -33.7691   YZ=    -0.7705   ZZ=   295.5017
   Eigenvalues:   238.2969   251.8857   327.6120
      8  C    Isotropic =   198.3285   Anisotropy =    12.9435
   XX=   196.2000   YX=     2.9703   ZX=     3.9515
   XY=    -5.0575   YY=   206.2355   ZY=     0.3588
   XZ=     2.8245   YZ=     6.0537   ZZ=   192.5498
   Eigenvalues:   189.8636   198.1643   206.9574
      9  C    Isotropic =   180.2136   Anisotropy =    42.9404
   XX=   166.0553   YX=     1.7077   ZX=    -5.9117
   XY=     8.6989   YY=   206.7549   ZY=    -6.5085
   XZ=   -24.6660   YZ=    -4.1455   ZZ=   167.8306
   Eigenvalues:   151.6280   180.1722   208.8405
     10  C    Isotropic =   189.5193   Anisotropy =    32.6776
   XX=   185.4370   YX=     9.1601   ZX=    16.8884
   XY=    11.3018   YY=   195.3722   ZY=     7.2825
   XZ=    10.2136   YZ=     9.9695   ZZ=   187.7487
   Eigenvalues:   172.8132   184.4404   211.3044
     11  C    Isotropic =   212.9914   Anisotropy =    20.2720
   XX=   214.3917   YX=     3.1085   ZX=    10.8843
   XY=    -5.3564   YY=   208.2119   ZY=    -5.7690
   XZ=     8.8347   YZ=    -4.7955   ZZ=   216.3705
   Eigenvalues:   203.4952   208.9729   226.5060
     12  C    Isotropic =   214.6693   Anisotropy =    19.4736
   XX=   217.2107   YX=     6.5730   ZX=     7.8422
   XY=     8.8615   YY=   218.1769   ZY=     1.5532
   XZ=     6.6200   YZ=     2.3007   ZZ=   208.6204
   Eigenvalues:   204.0760   212.2803   227.6517
     13  C    Isotropic =   211.0635   Anisotropy =     7.3245
   XX=   209.9984   YX=     0.4703   ZX=     0.9611
   XY=    -2.1328   YY=   213.1897   ZY=    -4.5652
   XZ=    -2.1094   YZ=    -3.4819   ZZ=   210.0023
   Eigenvalues:   206.9734   210.2705   215.9465
     14  N    Isotropic =   300.8591   Anisotropy =    59.9532
   XX=   270.4185   YX=    35.6644   ZX=    32.9356
   XY=    25.0238   YY=   317.1829   ZY=    -3.5628
   XZ=    32.6282   YZ=    -3.5362   ZZ=   314.9759
   Eigenvalues:   242.0665   319.6829   340.8279
     15  C    Isotropic =   202.4658   Anisotropy =    39.2898
   XX=   188.7383   YX=     5.2680   ZX=    -2.8253
   XY=     4.1429   YY=   225.5930   ZY=    -8.6592
   XZ=    -4.1751   YZ=    -9.3428   ZZ=   193.0661
   Eigenvalues:   186.7843   191.9541   228.6590
     16  C    Isotropic =   219.5228   Anisotropy =     8.9645
   XX=   214.7544   YX=     4.1235   ZX=     1.8770
   XY=     8.0696   YY=   218.6373   ZY=    -0.8902
   XZ=    -0.7045   YZ=    -1.7638   ZZ=   225.1766
   Eigenvalues:   210.1920   222.8772   225.4991
     17  C    Isotropic =   214.0842   Anisotropy =    22.9847
   XX=   207.1246   YX=     6.6173   ZX=     2.0092
   XY=     4.3908   YY=   227.2443   ZY=    -2.9892
   XZ=     2.1392   YZ=    -6.3148   ZZ=   207.8836
   Eigenvalues:   203.2326   209.6126   229.4073
     18  C    Isotropic =   209.3888   Anisotropy =    31.8608
   XX=   202.2699   YX=     9.2310   ZX=    20.4308
   XY=    12.7991   YY=   213.5711   ZY=    -3.5957
   XZ=    19.2186   YZ=     3.2703   ZZ=   212.3255
   Eigenvalues:   184.1261   213.4111   230.6294
     19  C    Isotropic =   200.0603   Anisotropy =    40.0768
   XX=   180.1342   YX=     2.4788   ZX=     3.4647
   XY=     4.2537   YY=   202.6518   ZY=   -16.4725
   XZ=    12.1487   YZ=   -12.4319   ZZ=   217.3949
   Eigenvalues:   176.8076   196.5951   226.7782
     20  C    Isotropic =   212.3397   Anisotropy =    20.9890
   XX=   215.2989   YX=    -9.1496   ZX=    -4.5399
   XY=    -9.6728   YY=   218.2656   ZY=    -4.7286
   XZ=    -6.1785   YZ=    -6.1984   ZZ=   203.4545
   Eigenvalues:   197.4881   213.1986   226.3323
     21  C    Isotropic =   208.2764   Anisotropy =    11.9003
   XX=   214.8998   YX=    -8.2568   ZX=     0.3629
   XY=    -0.0799   YY=   202.8995   ZY=    -3.0581
   XZ=    -2.7744   YZ=    -5.8580   ZZ=   207.0298
   Eigenvalues:   198.9557   209.6635   216.2099
     22  C    Isotropic =    97.0199   Anisotropy =    99.3541
   XX=   128.9457   YX=    57.5668   ZX=   -26.0771
   XY=    78.4621   YY=    28.1291   ZY=    57.9914
   XZ=   -28.9138   YZ=    48.0754   ZZ=   133.9849
   Eigenvalues:   -28.1302   155.9339   163.2560
     23  O    Isotropic =  -136.5590   Anisotropy =   887.9578
   XX=  -321.8190   YX=  -181.3939   ZX=  -335.3257
   XY=  -168.2572   YY=  -380.5209   ZY=    55.8644
   XZ=  -328.7318   YZ=    52.8877   ZZ=   292.6629
   Eigenvalues:  -573.8807  -291.2092   455.4129
     24  O    Isotropic =   284.6069   Anisotropy =   138.1405
   XX=   171.4114   YX=    89.7477   ZX=  -115.9903
   XY=   -39.3039   YY=   373.5872   ZY=   -18.1393
   XZ=   -74.5677   YZ=    40.3761   ZZ=   308.8221
   Eigenvalues:   119.6674   357.4527   376.7006
     25  C    Isotropic =   197.3647   Anisotropy =    57.7873
   XX=   210.6725   YX=   -20.9326   ZX=    19.4198
   XY=   -21.1929   YY=   190.8542   ZY=   -12.4244
   XZ=    20.0348   YZ=   -11.9008   ZZ=   190.5675
   Eigenvalues:   177.4296   178.7750   235.8896
     26  C    Isotropic =   209.8234   Anisotropy =    40.9056
   XX=   199.7468   YX=     2.9328   ZX=     2.9069
   XY=     0.8723   YY=   225.6022   ZY=    19.2898
   XZ=     4.1628   YZ=    18.9196   ZZ=   204.1211
   Eigenvalues:   192.3336   200.0428   237.0938
     27  C    Isotropic =   206.2827   Anisotropy =    15.7359
   XX=   213.2555   YX=    -6.8660   ZX=    -0.0049
   XY=    -7.6727   YY=   201.7456   ZY=     0.3820
   XZ=     0.0150   YZ=     0.1808   ZZ=   203.8470
   Eigenvalues:   198.2173   203.8575   216.7733
     28  C    Isotropic =   120.0850   Anisotropy =   158.8921
   XX=   113.1872   YX=     4.0032   ZX=   -82.6966
   XY=     9.5087   YY=    86.9239   ZY=    24.6681
   XZ=   -85.6440   YZ=    26.7235   ZZ=   160.1440
   Eigenvalues:    39.7173    94.5247   226.0131
     29  C    Isotropic =   121.3913   Anisotropy =   156.2329
   XX=   142.8178   YX=   -13.7852   ZX=   -56.3251
   XY=    -4.0745   YY=    33.2490   ZY=    22.1927
   XZ=   -48.6233   YZ=    22.8736   ZZ=   188.1071
   Eigenvalues:    30.0153   108.6121   225.5466
     30  C    Isotropic =   119.3924   Anisotropy =   152.0452
   XX=   105.6716   YX=   -35.7578   ZX=   -77.4246
   XY=   -39.9076   YY=    83.4612   ZY=   -11.0877
   XZ=   -75.1606   YZ=   -15.2659   ZZ=   169.0445
   Eigenvalues:    27.5778   109.8436   220.7559
     31  C    Isotropic =   134.5151   Anisotropy =   141.9529
   XX=   156.5320   YX=    -6.5282   ZX=   -51.6006
   XY=   -10.3029   YY=    54.7300   ZY=    13.6788
   XZ=   -47.5161   YZ=    20.8050   ZZ=   192.2832
   Eigenvalues:    52.5413   121.8535   229.1503
     32  C    Isotropic =   109.3016   Anisotropy =   126.3017
   XX=   103.1224   YX=     0.7838   ZX=   -68.0210
   XY=    14.2690   YY=    82.9901   ZY=    26.9003
   XZ=   -63.3178   YZ=    25.9462   ZZ=   141.7922
   Eigenvalues:    41.8440    92.5580   193.5027
     33  C    Isotropic =   119.5324   Anisotropy =   135.8355
   XX=   111.7719   YX=   -16.5042   ZX=   -64.6181
   XY=   -28.1130   YY=    77.7081   ZY=    -4.5682
   XZ=   -61.6195   YZ=    -8.9252   ZZ=   169.1172
   Eigenvalues:    51.6527    96.8550   210.0894
     34  N    Isotropic =   275.2767   Anisotropy =    81.4939
   XX=   278.2973   YX=   -11.8703   ZX=    46.2214
   XY=     2.4138   YY=   249.7203   ZY=     7.0383
   XZ=    34.5421   YZ=    -1.5162   ZZ=   297.8124
   Eigenvalues:   242.4577   253.7663   329.6059
     35  C    Isotropic =   195.5353   Anisotropy =    13.4939
   XX=   194.2386   YX=     1.4824   ZX=    -1.2865
   XY=    -4.1875   YY=   204.2077   ZY=    -0.0984
   XZ=    -3.3037   YZ=    -3.5463   ZZ=   188.1595
   Eigenvalues:   187.1170   194.9577   204.5312
     36  C    Isotropic =   181.4461   Anisotropy =    44.2018
   XX=   166.1776   YX=     3.6012   ZX=     6.7855
   XY=     8.9632   YY=   206.7912   ZY=     9.6245
   XZ=    23.4924   YZ=     7.2466   ZZ=   171.3696
   Eigenvalues:   153.4056   180.0188   210.9140
     37  C    Isotropic =   180.2315   Anisotropy =    46.0681
   XX=   174.8908   YX=    14.4804   ZX=   -14.0870
   XY=    14.2362   YY=   187.2388   ZY=   -19.7959
   XZ=   -17.2674   YZ=   -10.6012   ZZ=   178.5649
   Eigenvalues:   160.9121   168.8388   210.9436
     38  C    Isotropic =   213.9601   Anisotropy =    18.9290
   XX=   213.9827   YX=     3.5424   ZX=   -10.0294
   XY=    -3.5189   YY=   210.0739   ZY=     4.7186
   XZ=    -9.6996   YZ=     3.5493   ZZ=   217.8237
   Eigenvalues:   204.4916   210.8093   226.5794
     39  C    Isotropic =   212.6754   Anisotropy =    21.6135
   XX=   214.6620   YX=     7.9392   ZX=    -8.2719
   XY=     9.3564   YY=   214.4785   ZY=    -5.3741
   XZ=    -6.6119   YZ=    -3.2901   ZZ=   208.8858
   Eigenvalues:   203.4713   207.4705   227.0844
     40  C    Isotropic =   212.1570   Anisotropy =     9.2190
   XX=   209.2946   YX=    -1.1378   ZX=    -0.4482
   XY=    -0.4552   YY=   213.7734   ZY=     4.4337
   XZ=     1.8950   YZ=     4.9875   ZZ=   213.4029
   Eigenvalues:   207.9901   210.1778   218.3030
     41  N    Isotropic =   234.6667   Anisotropy =    25.2639
   XX=   238.8237   YX=   -13.9873   ZX=     2.0441
   XY=     3.2286   YY=   232.7236   ZY=    -6.3956
   XZ=     4.7798   YZ=   -25.3156   ZZ=   232.4528
   Eigenvalues:   216.6432   235.8476   251.5093
     42  C    Isotropic =   194.9847   Anisotropy =    49.3624
   XX=   182.6042   YX=     7.1769   ZX=    15.9513
   XY=     5.6293   YY=   218.2350   ZY=    20.7853
   XZ=     7.6833   YZ=    13.6188   ZZ=   184.1148
   Eigenvalues:   170.1431   186.9179   227.8929
     43  C    Isotropic =   223.0152   Anisotropy =    10.4367
   XX=   218.1087   YX=     3.7307   ZX=     1.0547
   XY=     4.8289   YY=   224.9584   ZY=    -4.6861
   XZ=     1.3699   YZ=    -3.5190   ZZ=   225.9784
   Eigenvalues:   215.2207   223.8518   229.9730
     44  C    Isotropic =   215.8034   Anisotropy =    19.2325
   XX=   210.3580   YX=     4.6201   ZX=     0.2647
   XY=     1.9680   YY=   227.4797   ZY=     0.9213
   XZ=    -0.8331   YZ=     5.6628   ZZ=   209.5726
   Eigenvalues:   208.4553   210.3299   228.6251
     45  C    Isotropic =   211.0499   Anisotropy =    38.4248
   XX=   215.9884   YX=    21.3790   ZX=   -14.8352
   XY=    14.0312   YY=   206.3164   ZY=    -0.6886
   XZ=   -16.2347   YZ=    -2.0308   ZZ=   210.8448
   Eigenvalues:   188.8651   207.6181   236.6664
     46  C    Isotropic =   191.7905   Anisotropy =    52.5792
   XX=   197.2204   YX=    -8.5886   ZX=   -30.5654
   XY=   -17.6059   YY=   201.3858   ZY=     7.6767
   XZ=   -25.4632   YZ=    10.6251   ZZ=   176.7653
   Eigenvalues:   157.1699   191.3582   226.8432
     47  C    Isotropic =   212.5904   Anisotropy =    21.9866
   XX=   215.3022   YX=    -9.5704   ZX=     2.4358
   XY=   -10.1120   YY=   217.6750   ZY=     6.9846
   XZ=     2.8103   YZ=     8.6634   ZZ=   204.7939
   Eigenvalues:   198.1339   212.3891   227.2481
     48  C    Isotropic =   209.5428   Anisotropy =    10.6404
   XX=   215.9304   YX=    -6.7524   ZX=    -1.0205
   XY=     0.9674   YY=   202.8265   ZY=     4.2305
   XZ=     1.9417   YZ=     6.6595   ZZ=   209.8714
   Eigenvalues:   199.4008   212.5912   216.6364
     49  C    Isotropic =    96.1215   Anisotropy =    99.5190
   XX=   120.4201   YX=    64.8295   ZX=    28.9148
   XY=    82.0266   YY=    32.7154   ZY=   -55.3041
   XZ=    29.9323   YZ=   -41.0964   ZZ=   135.2290
   Eigenvalues:   -28.4266   154.3237   162.4675
     50  O    Isotropic =  -133.9873   Anisotropy =   887.0191
   XX=  -180.3607   YX=  -136.4634   ZX=   417.6655
   XY=  -113.8198   YY=  -414.5401   ZY=    58.6798
   XZ=   402.9916   YZ=    65.4618   ZZ=   192.9389
   Eigenvalues:  -569.2514  -290.0693   457.3588
     51  O    Isotropic =   283.3500   Anisotropy =   138.8225
   XX=   193.1427   YX=    76.6153   ZX=   123.2375
   XY=   -49.1985   YY=   374.8572   ZY=    31.3446
   XZ=   101.5398   YZ=   -49.3338   ZZ=   282.0501
   Eigenvalues:   115.6985   358.4531   375.8983
     52  C    Isotropic =   197.1838   Anisotropy =    58.0485
   XX=   208.5453   YX=   -19.6080   ZX=   -21.1815
   XY=   -19.4962   YY=   189.4463   ZY=    13.7484
   XZ=   -21.6671   YZ=    13.1770   ZZ=   193.5599
   Eigenvalues:   177.2332   178.4355   235.8828
     53  C    Isotropic =   209.9535   Anisotropy =    40.8228
   XX=   199.7764   YX=     2.6260   ZX=    -2.4648
   XY=     0.6705   YY=   227.7965   ZY=   -18.0266
   XZ=    -3.8445   YZ=   -17.5784   ZZ=   202.2875
   Eigenvalues:   192.5437   200.1481   237.1687
     54  O    Isotropic =     0.5176   Anisotropy =   521.9056
   XX=    56.7895   YX=  -120.9545   ZX=   220.8861
   XY=  -103.8347   YY=  -149.8091   ZY=  -101.7255
   XZ=   223.5195   YZ=  -119.3897   ZZ=    94.5725
   Eigenvalues:  -200.6530  -146.2488   348.4547
     55  H    Isotropic =    26.2738   Anisotropy =    14.4496
   XX=    33.0098   YX=     1.0161   ZX=    -5.2359
   XY=     0.8233   YY=    23.1673   ZY=     0.7220
   XZ=    -7.1099   YZ=     0.8584   ZZ=    22.6444
   Eigenvalues:    19.4383    23.4763    35.9069
     56  H    Isotropic =    25.3334   Anisotropy =     5.6958
   XX=    26.6451   YX=    -1.6468   ZX=    -1.6340
   XY=    -1.1605   YY=    27.8159   ZY=     0.5771
   XZ=    -1.8077   YZ=     1.1350   ZZ=    21.5393
   Eigenvalues:    20.9874    25.8822    29.1307
     57  H    Isotropic =    26.4267   Anisotropy =     7.9983
   XX=    28.2602   YX=     1.2597   ZX=    -4.8862
   XY=     1.1432   YY=    27.7058   ZY=    -0.4475
   XZ=    -5.0261   YZ=    -0.7024   ZZ=    23.3140
   Eigenvalues:    20.2453    27.2757    31.7589
     58  H    Isotropic =    32.3136   Anisotropy =     9.8305
   XX=    36.7670   YX=    -3.2269   ZX=    -2.7848
   XY=    -1.7564   YY=    32.1048   ZY=     0.4758
   XZ=    -4.4617   YZ=    -0.7509   ZZ=    28.0692
   Eigenvalues:    26.5695    31.5042    38.8673
     59  H    Isotropic =    32.2640   Anisotropy =    12.3687
   XX=    26.4250   YX=     1.2594   ZX=     3.2054
   XY=     1.4572   YY=    34.3428   ZY=     4.3301
   XZ=     1.2398   YZ=     5.2329   ZZ=    36.0240
   Eigenvalues:    25.9208    30.3613    40.5097
     60  H    Isotropic =    33.3144   Anisotropy =    11.3334
   XX=    40.2736   YX=     2.5324   ZX=     1.9938
   XY=     2.5352   YY=    28.4427   ZY=    -2.5357
   XZ=    -2.7179   YZ=    -2.3049   ZZ=    31.2270
   Eigenvalues:    26.7340    32.3393    40.8700
     61  H    Isotropic =    32.4406   Anisotropy =    14.5843
   XX=    26.9521   YX=     1.2376   ZX=     1.5262
   XY=     1.1915   YY=    28.3274   ZY=    -0.6736
   XZ=     0.8401   YZ=    -0.7780   ZZ=    42.0424
   Eigenvalues:    26.1230    29.0354    42.1635
     62  H    Isotropic =    32.9814   Anisotropy =    13.5656
   XX=    39.7735   YX=    -4.2099   ZX=     3.5473
   XY=    -3.7011   YY=    31.1422   ZY=    -1.8294
   XZ=     1.5477   YZ=    -2.4450   ZZ=    28.0284
   Eigenvalues:    26.9151    30.0039    42.0251
     63  H    Isotropic =    32.5041   Anisotropy =    11.7754
   XX=    32.2037   YX=    -3.8885   ZX=    -3.2747
   XY=    -4.4631   YY=    36.1987   ZY=     2.8133
   XZ=    -3.4832   YZ=     2.6345   ZZ=    29.1098
   Eigenvalues:    26.9403    30.2176    40.3543
     64  H    Isotropic =    31.7225   Anisotropy =    15.2691
   XX=    30.3365   YX=     6.3383   ZX=     4.7034
   XY=     7.0926   YY=    33.7555   ZY=     3.5581
   XZ=     4.2176   YZ=     3.6996   ZZ=    31.0755
   Eigenvalues:    24.7136    28.5520    41.9019
     65  H    Isotropic =    32.4574   Anisotropy =    17.2636
   XX=    26.1254   YX=     1.9586   ZX=     0.1082
   XY=     2.5307   YY=    42.5811   ZY=    -4.1192
   XZ=    -0.2977   YZ=    -4.0727   ZZ=    28.6656
   Eigenvalues:    25.7223    27.6833    43.9664
     66  H    Isotropic =    31.8736   Anisotropy =    13.3684
   XX=    39.2131   YX=     2.6827   ZX=    -3.1998
   XY=     2.9742   YY=    29.0200   ZY=    -0.3801
   XZ=    -3.5754   YZ=    -0.2020   ZZ=    27.3876
   Eigenvalues:    26.3891    28.4458    40.7858
     67  H    Isotropic =    32.6990   Anisotropy =    12.2088
   XX=    35.5546   YX=    -4.1614   ZX=     3.8647
   XY=    -4.1025   YY=    34.7158   ZY=    -2.8175
   XZ=     2.9611   YZ=    -3.0240   ZZ=    27.8267
   Eigenvalues:    26.2742    30.9846    40.8382
     68  H    Isotropic =    32.3410   Anisotropy =    14.6321
   XX=    26.6934   YX=     2.2443   ZX=    -3.3109
   XY=     2.2060   YY=    30.6492   ZY=    -3.7278
   XZ=    -3.5542   YZ=    -3.8502   ZZ=    39.6805
   Eigenvalues:    25.4546    29.4727    42.0958
     69  H    Isotropic =    32.4452   Anisotropy =    12.3388
   XX=    37.5713   YX=    -5.3131   ZX=     0.7213
   XY=    -5.8892   YY=    30.3596   ZY=     2.2174
   XZ=     0.8645   YZ=     3.5508   ZZ=    29.4047
   Eigenvalues:    25.2490    31.4155    40.6711
     70  H    Isotropic =    32.9744   Anisotropy =    10.5698
   XX=    30.4359   YX=     2.5936   ZX=     0.6711
   XY=     0.8902   YY=    31.0768   ZY=    -5.4483
   XZ=     3.0285   YZ=    -4.0427   ZZ=    37.4104
   Eigenvalues:    26.8826    32.0195    40.0209
     71  H    Isotropic =    32.2363   Anisotropy =    11.6387
   XX=    31.3699   YX=    -0.0527   ZX=    -4.7026
   XY=    -0.3539   YY=    29.8631   ZY=     3.6227
   XZ=    -4.5737   YZ=     5.2170   ZZ=    35.4759
   Eigenvalues:    26.2652    30.4483    39.9955
     72  H    Isotropic =    31.9233   Anisotropy =    16.0552
   XX=    33.6841   YX=     3.6002   ZX=     7.0607
   XY=     2.7625   YY=    28.6713   ZY=     2.1302
   XZ=     8.7081   YZ=     3.0291   ZZ=    33.4144
   Eigenvalues:    25.5887    27.5544    42.6267
     73  H    Isotropic =    32.0740   Anisotropy =    15.0398
   XX=    29.3038   YX=    -0.2227   ZX=    -7.2031
   XY=    -0.6409   YY=    28.9560   ZY=    -0.9051
   XZ=    -7.2199   YZ=    -1.5580   ZZ=    37.9621
   Eigenvalues:    24.9766    29.1448    42.1005
     74  H    Isotropic =    30.3599   Anisotropy =    10.9714
   XX=    36.8211   YX=     2.8488   ZX=     0.8062
   XY=     1.9719   YY=    29.9358   ZY=     1.3335
   XZ=     0.6204   YZ=     1.5159   ZZ=    24.3227
   Eigenvalues:    23.9803    29.4251    37.6741
     75  H    Isotropic =    31.2800   Anisotropy =    12.1438
   XX=    27.4296   YX=    -1.9927   ZX=    -3.0131
   XY=    -2.0310   YY=    32.4965   ZY=     4.9284
   XZ=    -1.8793   YZ=     5.6402   ZZ=    33.9139
   Eigenvalues:    26.5839    27.8803    39.3759
     76  H    Isotropic =    30.4942   Anisotropy =    11.6907
   XX=    28.6928   YX=    -2.3220   ZX=     0.7521
   XY=    -1.6831   YY=    37.3459   ZY=    -2.1145
   XZ=     0.8907   YZ=    -2.7178   ZZ=    25.4439
   Eigenvalues:    24.9200    28.2746    38.2880
     77  H    Isotropic =    30.4979   Anisotropy =    12.1531
   XX=    37.1030   YX=    -3.2060   ZX=    -3.1224
   XY=    -2.5864   YY=    27.7139   ZY=    -0.2833
   XZ=    -2.8124   YZ=     0.0990   ZZ=    26.6766
   Eigenvalues:    25.4675    27.4261    38.5999
     78  H    Isotropic =    30.5649   Anisotropy =     8.0397
   XX=    29.6621   YX=    -2.1479   ZX=     3.2601
   XY=    -2.2807   YY=    28.0906   ZY=     1.2508
   XZ=     3.7099   YZ=     0.1075   ZZ=    33.9420
   Eigenvalues:    25.6190    30.1511    35.9248
     79  H    Isotropic =    31.9255   Anisotropy =    11.1373
   XX=    33.7760   YX=     3.4907   ZX=     5.0517
   XY=     2.9537   YY=    31.8174   ZY=     2.6987
   XZ=     3.3214   YZ=     4.1496   ZZ=    30.1832
   Eigenvalues:    26.9788    29.4474    39.3504
     80  H    Isotropic =    30.6476   Anisotropy =    14.1271
   XX=    26.7485   YX=     0.1552   ZX=    -1.2360
   XY=    -0.1320   YY=    39.4856   ZY=    -3.1054
   XZ=    -1.8580   YZ=    -2.6270   ZZ=    25.7085
   Eigenvalues:    24.2246    27.6524    40.0656
     81  H    Isotropic =    30.8741   Anisotropy =    10.8070
   XX=    31.0395   YX=    -0.8181   ZX=    -4.4309
   XY=    -1.5325   YY=    32.4544   ZY=     4.4899
   XZ=    -5.2985   YZ=     4.9012   ZZ=    29.1285
   Eigenvalues:    23.9627    30.5808    38.0788
     82  H    Isotropic =    30.0094   Anisotropy =    10.1326
   XX=    28.7603   YX=     2.5737   ZX=     2.3196
   XY=     1.9047   YY=    30.0330   ZY=     4.2081
   XZ=     1.9983   YZ=     5.5754   ZZ=    31.2348
   Eigenvalues:    25.6766    27.5871    36.7644
     83  H    Isotropic =    29.7693   Anisotropy =     9.9516
   XX=    28.3507   YX=     2.8482   ZX=    -2.0937
   XY=     2.0181   YY=    30.0235   ZY=    -4.0338
   XZ=    -1.8322   YZ=    -5.3965   ZZ=    30.9336
   Eigenvalues:    25.6088    27.2953    36.4037
     84  H    Isotropic =    24.7883   Anisotropy =    15.7429
   XX=    31.7258   YX=     1.4649   ZX=     6.0473
   XY=     0.6807   YY=    21.7097   ZY=    -0.1306
   XZ=     8.0947   YZ=    -0.1424   ZZ=    20.9295
   Eigenvalues:    17.3488    21.7326    35.2836
     85  H    Isotropic =    25.6639   Anisotropy =     5.6650
   XX=    26.7003   YX=    -1.8545   ZX=     1.8318
   XY=    -1.2203   YY=    28.2005   ZY=    -0.0842
   XZ=     2.1718   YZ=    -0.6510   ZZ=    22.0909
   Eigenvalues:    21.3371    26.2141    29.4406
     86  H    Isotropic =    26.6554   Anisotropy =     8.0551
   XX=    28.1303   YX=     0.9765   ZX=     5.1212
   XY=     0.9900   YY=    28.0594   ZY=     0.9015
   XZ=     5.2287   YZ=     1.0058   ZZ=    23.7764
   Eigenvalues:    20.3309    27.6098    32.0254
     87  H    Isotropic =    30.9165   Anisotropy =     9.8009
   XX=    36.7957   YX=    -3.1856   ZX=     1.5195
   XY=    -0.8041   YY=    28.9017   ZY=    -0.5903
   XZ=     1.3597   YZ=     0.9056   ZZ=    27.0522
   Eigenvalues:    26.7354    28.5637    37.4505
     88  H    Isotropic =    32.2810   Anisotropy =    12.6677
   XX=    26.1380   YX=     1.6674   ZX=    -3.0636
   XY=     1.8804   YY=    35.4961   ZY=    -4.4156
   XZ=    -1.2440   YZ=    -5.2724   ZZ=    35.2091
   Eigenvalues:    25.5920    30.5249    40.7261
     89  H    Isotropic =    33.1341   Anisotropy =    11.5401
   XX=    40.4312   YX=     2.0457   ZX=    -1.7640
   XY=     2.2552   YY=    27.8137   ZY=     2.0102
   XZ=     2.3412   YZ=     1.9901   ZZ=    31.1575
   Eigenvalues:    26.6326    31.9423    40.8275
     90  H    Isotropic =    32.6791   Anisotropy =    13.6387
   XX=    38.3700   YX=    -3.6832   ZX=    -5.1099
   XY=    -3.0977   YY=    30.3581   ZY=     2.5113
   XZ=    -3.8255   YZ=     3.1403   ZZ=    29.3093
   Eigenvalues:    26.7186    29.5471    41.7716
     91  H    Isotropic =    32.3872   Anisotropy =    14.4651
   XX=    26.9128   YX=     1.1624   ZX=     0.2765
   XY=     1.1166   YY=    28.2976   ZY=    -1.1679
   XZ=     0.5546   YZ=    -0.8206   ZZ=    41.9512
   Eigenvalues:    26.2255    28.9056    42.0306
     92  H    Isotropic =    30.7449   Anisotropy =    13.0004
   XX=    30.3516   YX=    -4.7635   ZX=     1.6877
   XY=    -6.4615   YY=    35.9012   ZY=    -0.5735
   XZ=     1.5340   YZ=     1.2355   ZZ=    25.9818
   Eigenvalues:    24.8044    28.0184    39.4118
     93  H    Isotropic =    30.8320   Anisotropy =    14.0881
   XX=    27.1676   YX=     6.1216   ZX=    -3.2153
   XY=     4.8875   YY=    34.8817   ZY=    -4.6926
   XZ=    -2.1843   YZ=    -3.5868   ZZ=    30.4466
   Eigenvalues:    24.2501    28.0218    40.2240
     94  H    Isotropic =    32.3221   Anisotropy =    18.2275
   XX=    26.9812   YX=     5.0502   ZX=     1.8596
   XY=     5.2037   YY=    40.4455   ZY=     5.5490
   XZ=     2.0268   YZ=     5.5057   ZZ=    29.5395
   Eigenvalues:    25.2488    27.2437    44.4738
     95  H    Isotropic =    32.5600   Anisotropy =    10.7700
   XX=    39.6802   YX=     0.8593   ZX=     0.4336
   XY=     0.2838   YY=    31.0719   ZY=     0.5540
   XZ=     0.5394   YZ=     0.7947   ZZ=    26.9279
   Eigenvalues:    26.8089    31.1310    39.7400
     96  H    Isotropic =    32.5655   Anisotropy =    12.9467
   XX=    34.3577   YX=    -4.0901   ZX=    -4.3226
   XY=    -4.2633   YY=    34.0437   ZY=     3.7925
   XZ=    -4.0463   YZ=     4.2097   ZZ=    29.2950
   Eigenvalues:    26.4786    30.0212    41.1966
     97  H    Isotropic =    32.4733   Anisotropy =    14.4768
   XX=    27.4613   YX=     2.0047   ZX=     4.8257
   XY=     1.7371   YY=    30.1217   ZY=     2.2326
   XZ=     4.4066   YZ=     2.8552   ZZ=    39.8370
   Eigenvalues:    25.6834    29.6120    42.1245
     98  H    Isotropic =    31.6574   Anisotropy =    11.0908
   XX=    29.9314   YX=     3.6638   ZX=     2.4176
   XY=     2.5747   YY=    26.2861   ZY=     1.4408
   XZ=     0.7169   YZ=    -1.3837   ZZ=    38.7547
   Eigenvalues:    24.4554    31.4656    39.0513
     99  H    Isotropic =    32.8658   Anisotropy =    11.2863
   XX=    34.7208   YX=    -5.8905   ZX=    -2.8663
   XY=    -5.5290   YY=    33.3648   ZY=     0.9480
   XZ=    -3.3338   YZ=    -0.7336   ZZ=    30.5118
   Eigenvalues:    27.0111    31.1963    40.3900
    100  H    Isotropic =    31.4750   Anisotropy =     8.4819
   XX=    37.1119   YX=     0.7178   ZX=     0.3944
   XY=    -0.0383   YY=    28.6200   ZY=     0.3694
   XZ=    -0.0172   YZ=    -0.4961   ZZ=    28.6930
   Eigenvalues:    28.5657    28.7297    37.1296
    101  H    Isotropic =    30.9372   Anisotropy =    15.1292
   XX=    28.9212   YX=     3.8646   ZX=    -7.3722
   XY=     2.8172   YY=    29.4672   ZY=    -3.2670
   XZ=    -5.2287   YZ=    -5.1381   ZZ=    34.4233
   Eigenvalues:    24.7069    27.0814    41.0234
    102  H    Isotropic =    31.6192   Anisotropy =    10.1054
   XX=    36.7715   YX=     3.3086   ZX=    -1.8363
   XY=     2.0038   YY=    31.6358   ZY=    -1.3004
   XZ=    -2.3322   YZ=    -0.8309   ZZ=    26.4503
   Eigenvalues:    25.9865    30.5150    38.3561
    103  H    Isotropic =    32.2329   Anisotropy =    14.5490
   XX=    30.1285   YX=    -0.5958   ZX=     7.6904
   XY=    -1.0262   YY=    29.4020   ZY=     0.5086
   XZ=     7.2971   YZ=     1.0868   ZZ=    37.1683
   Eigenvalues:    25.0825    29.6840    41.9323
    104  H    Isotropic =    31.2078   Anisotropy =    12.1384
   XX=    27.3681   YX=    -2.6579   ZX=     3.0046
   XY=    -2.6284   YY=    33.2927   ZY=    -4.3952
   XZ=     2.0462   YZ=    -5.7043   ZZ=    32.9625
   Eigenvalues:    26.2479    28.0755    39.3000
    105  H    Isotropic =    30.6174   Anisotropy =     7.8401
   XX=    29.1195   YX=    -2.3692   ZX=    -2.1689
   XY=    -2.3926   YY=    27.9153   ZY=    -0.2441
   XZ=    -2.6349   YZ=     0.7316   ZZ=    34.8173
   Eigenvalues:    25.8593    30.1487    35.8441
    106  H    Isotropic =    30.5597   Anisotropy =    11.8045
   XX=    37.9495   YX=    -2.1227   ZX=     1.8426
   XY=    -1.3402   YY=    27.6863   ZY=     0.8574
   XZ=     1.5194   YZ=     0.4648   ZZ=    26.0433
   Eigenvalues:    25.4233    27.8265    38.4293
    107  H    Isotropic =    30.5010   Anisotropy =    11.9977
   XX=    28.5824   YX=    -3.0012   ZX=    -0.8837
   XY=    -2.2790   YY=    37.5353   ZY=     1.2850
   XZ=    -1.0831   YZ=     1.8807   ZZ=    25.3854
   Eigenvalues:    25.0436    27.9600    38.4995
    108  H    Isotropic =    30.9714   Anisotropy =    10.6649
   XX=    31.1269   YX=    -1.0115   ZX=     4.2987
   XY=    -1.7834   YY=    33.0650   ZY=    -4.1953
   XZ=     5.4180   YZ=    -4.4817   ZZ=    28.7222
   Eigenvalues:    24.0699    30.7629    38.0813
    109  H    Isotropic =    30.7277   Anisotropy =    14.1539
   XX=    26.7819   YX=    -0.1605   ZX=     1.1582
   XY=    -0.4137   YY=    39.1953   ZY=     3.9080
   XZ=     1.9099   YZ=     3.4408   ZZ=    26.2059
   Eigenvalues:    24.2726    27.7468    40.1636
    110  H    Isotropic =    31.9811   Anisotropy =    11.2875
   XX=    33.6923   YX=     3.9077   ZX=    -4.8007
   XY=     3.3634   YY=    32.3326   ZY=    -2.6695
   XZ=    -3.0628   YZ=    -4.0667   ZZ=    29.9185
   Eigenvalues:    27.1213    29.3160    39.5061
 End of Minotr F.D. properties file   721 does not exist.
 End of Minotr F.D. properties file   722 does not exist.
 End of Minotr F.D. properties file   788 does not exist.
 Hyperfine terms turned off by default for NAtoms > 100.

 **********************************************************************

            Population analysis using the SCF Density.

 **********************************************************************

 Orbital symmetries:
       Occupied  (A) (A) (A) (A) (A) (A) (A) (A) (A) (A) (A) (A)
                 (A) (A) (A) (A) (A) (A) (A) (A) (A) (A) (A) (A)
                 (A) (A) (A) (A) (A) (A) (A) (A) (A) (A) (A) (A)
                 (A) (A) (A) (A) (A) (A) (A) (A) (A) (A) (A) (A)
                 (A) (A) (A) (A) (A) (A) (A) (A) (A) (A) (A) (A)
                 (A) (A) (A) (A) (A) (A) (A) (A) (A) (A) (A) (A)
                 (A) (A) (A) (A) (A) (A) (A) (A) (A) (A) (A) (A)
                 (A) (A) (A) (A) (A) (A) (A) (A) (A) (A) (A) (A)
                 (A) (A) (A) (A) (A) (A) (A) (A) (A) (A) (A) (A)
                 (A) (A) (A) (A) (A) (A) (A) (A) (A) (A) (A) (A)
                 (A) (A) (A) (A) (A) (A) (A) (A) (A) (A) (A) (A)
                 (A) (A) (A) (A) (A) (A) (A) (A) (A) (A) (A) (A)
                 (A) (A) (A) (A) (A) (A) (A) (A) (A) (A) (A) (A)
                 (A) (A) (A) (A) (A) (A) (A) (A) (A) (A) (A) (A)
                 (A) (A) (A) (A) (A) (A) (A) (A) (A) (A) (A) (A)
                 (A) (A) (A) (A) (A) (A) (A) (A) (A) (A) (A) (A)
                 (A) (A) (A) (A) (A)
       Virtual   (A) (A) (A) (A) (A) (A) (A) (A) (A) (A) (A) (A)
                 (A) (A) (A) (A) (A) (A) (A) (A) (A) (A) (A) (A)
                 (A) (A) (A) (A) (A) (A) (A) (A) (A) (A) (A) (A)
                 (A) (A) (A) (A) (A) (A) (A) (A) (A) (A) (A) (A)
                 (A) (A) (A) (A) (A) (A) (A) (A) (A) (A) (A) (A)
                 (A) (A) (A) (A) (A) (A) (A) (A) (A) (A) (A) (A)
                 (A) (A) (A) (A) (A) (A) (A) (A) (A) (A) (A) (A)
                 (A) (A) (A) (A) (A) (A) (A) (A) (A) (A) (A) (A)
                 (A) (A) (A) (A) (A) (A) (A) (A) (A) (A) (A) (A)
                 (A) (A) (A) (A) (A) (A) (A) (A) (A) (A) (A) (A)
                 (A) (A) (A) (A) (A) (A) (A) (A) (A)
 The electronic state is 1-A.
 Alpha  occ. eigenvalues --  -20.31330 -20.29733 -20.25211 -20.23761 -19.91703
 Alpha  occ. eigenvalues --  -15.47802 -15.33831 -15.32896 -15.29753 -11.17241
 Alpha  occ. eigenvalues --  -11.15633 -11.11029 -11.10185 -11.09863 -11.09327
 Alpha  occ. eigenvalues --  -11.09142 -11.08808 -11.08753 -11.08244 -11.07323
 Alpha  occ. eigenvalues --  -11.07313 -11.07222 -11.06933 -11.06642 -11.06414
 Alpha  occ. eigenvalues --  -11.06240 -11.06212 -11.05838 -11.05707 -11.05647
 Alpha  occ. eigenvalues --  -11.05439 -11.05107 -11.05103 -11.05004 -11.04899
 Alpha  occ. eigenvalues --  -11.04839 -11.04651 -11.03621 -11.03610 -11.03527
 Alpha  occ. eigenvalues --  -11.03368 -11.03353 -11.03274 -11.03248 -11.01467
 Alpha  occ. eigenvalues --  -11.01442 -11.01431 -11.01310 -11.01252 -11.01040
 Alpha  occ. eigenvalues --  -11.01017 -11.01008 -11.00954 -11.00707  -1.38509
 Alpha  occ. eigenvalues --   -1.37015  -1.28383  -1.28181  -1.26699  -1.21300
 Alpha  occ. eigenvalues --   -1.21036  -1.18804  -1.11992  -1.08861  -1.08289
 Alpha  occ. eigenvalues --   -1.07054  -1.06339  -1.04404  -1.03346  -1.00724
 Alpha  occ. eigenvalues --   -0.99988  -0.98723  -0.98106  -0.97525  -0.96633
 Alpha  occ. eigenvalues --   -0.96024  -0.94676  -0.93844  -0.93642  -0.92308
 Alpha  occ. eigenvalues --   -0.91829  -0.91172  -0.90784  -0.89345  -0.87858
 Alpha  occ. eigenvalues --   -0.86296  -0.84613  -0.83014  -0.82474  -0.80961
 Alpha  occ. eigenvalues --   -0.80764  -0.78981  -0.78862  -0.78165  -0.76616
 Alpha  occ. eigenvalues --   -0.76511  -0.74513  -0.73533  -0.72521  -0.72312
 Alpha  occ. eigenvalues --   -0.71586  -0.70422  -0.69609  -0.68910  -0.66989
 Alpha  occ. eigenvalues --   -0.65899  -0.64798  -0.64116  -0.63994  -0.63046
 Alpha  occ. eigenvalues --   -0.62746  -0.61914  -0.61780  -0.61603  -0.60959
 Alpha  occ. eigenvalues --   -0.60670  -0.59826  -0.59614  -0.59305  -0.59005
 Alpha  occ. eigenvalues --   -0.58412  -0.57928  -0.57689  -0.57554  -0.57411
 Alpha  occ. eigenvalues --   -0.56947  -0.56506  -0.56283  -0.55827  -0.55692
 Alpha  occ. eigenvalues --   -0.55242  -0.55081  -0.54504  -0.54306  -0.53839
 Alpha  occ. eigenvalues --   -0.53769  -0.53347  -0.53059  -0.52765  -0.52281
 Alpha  occ. eigenvalues --   -0.52140  -0.51249  -0.51034  -0.50875  -0.50455
 Alpha  occ. eigenvalues --   -0.50173  -0.49923  -0.49824  -0.48765  -0.48689
 Alpha  occ. eigenvalues --   -0.48247  -0.47737  -0.47724  -0.47371  -0.47169
 Alpha  occ. eigenvalues --   -0.46424  -0.46247  -0.46141  -0.45830  -0.45399
 Alpha  occ. eigenvalues --   -0.45282  -0.45154  -0.44606  -0.44549  -0.43780
 Alpha  occ. eigenvalues --   -0.43553  -0.43465  -0.43373  -0.42822  -0.42486
 Alpha  occ. eigenvalues --   -0.42374  -0.41676  -0.41145  -0.41058  -0.40566
 Alpha  occ. eigenvalues --   -0.40352  -0.39624  -0.39349  -0.38786  -0.37627
 Alpha  occ. eigenvalues --   -0.37414  -0.36865  -0.35540  -0.35434  -0.34618
 Alpha  occ. eigenvalues --   -0.33872  -0.33337  -0.32453  -0.32358  -0.31190
 Alpha  occ. eigenvalues --   -0.26960  -0.26492  -0.26316  -0.21147  -0.19899
 Alpha  occ. eigenvalues --   -0.15584  -0.15408
 Alpha virt. eigenvalues --    0.27116   0.27637   0.28204   0.29713   0.29768
 Alpha virt. eigenvalues --    0.31427   0.46624   0.47323   0.48883   0.49022
 Alpha virt. eigenvalues --    0.50078   0.50356   0.50742   0.51298   0.52676
 Alpha virt. eigenvalues --    0.52822   0.54283   0.54547   0.55656   0.56550
 Alpha virt. eigenvalues --    0.56762   0.57608   0.58271   0.58440   0.58540
 Alpha virt. eigenvalues --    0.58964   0.59565   0.60240   0.60347   0.61217
 Alpha virt. eigenvalues --    0.61484   0.61934   0.62448   0.62509   0.63150
 Alpha virt. eigenvalues --    0.63473   0.63758   0.63982   0.64180   0.64393
 Alpha virt. eigenvalues --    0.64618   0.64922   0.65385   0.65586   0.65683
 Alpha virt. eigenvalues --    0.65747   0.66254   0.66701   0.66830   0.67140
 Alpha virt. eigenvalues --    0.67603   0.67694   0.67848   0.68548   0.68783
 Alpha virt. eigenvalues --    0.69077   0.69109   0.69255   0.69776   0.69950
 Alpha virt. eigenvalues --    0.70249   0.70477   0.70757   0.70848   0.71270
 Alpha virt. eigenvalues --    0.71719   0.71857   0.71996   0.72340   0.72497
 Alpha virt. eigenvalues --    0.72732   0.73057   0.73249   0.73798   0.73998
 Alpha virt. eigenvalues --    0.74271   0.74384   0.74940   0.75138   0.75172
 Alpha virt. eigenvalues --    0.75435   0.75712   0.75772   0.76142   0.76433
 Alpha virt. eigenvalues --    0.76656   0.76844   0.77067   0.77158   0.77336
 Alpha virt. eigenvalues --    0.77768   0.77825   0.78540   0.78578   0.78823
 Alpha virt. eigenvalues --    0.79478   0.79703   0.79978   0.80051   0.80468
 Alpha virt. eigenvalues --    0.80959   0.81371   0.81581   0.81785   0.82085
 Alpha virt. eigenvalues --    0.82395   0.83302   0.83493   0.84000   0.84832
 Alpha virt. eigenvalues --    0.85510   0.86112   0.86625   0.86923   0.88020
 Alpha virt. eigenvalues --    0.88755   0.89511   0.91311   0.92324   0.94674
 Alpha virt. eigenvalues --    0.94862   0.95876   0.98748   1.00728   1.02112
 Alpha virt. eigenvalues --    1.10962   1.12345   1.16448   1.16680
          Condensed to atoms (all electrons):
 Mulliken charges:
               1
     1  C   -0.077457
     2  C    0.001640
     3  C   -0.061746
     4  C   -0.090062
     5  C    0.088974
     6  C   -0.014618
     7  N   -0.283229
     8  C    0.015313
     9  C    0.130016
    10  C    0.040641
    11  C   -0.114773
    12  C   -0.107890
    13  C    0.041579
    14  N   -0.294084
    15  C   -0.011801
    16  C   -0.095660
    17  C   -0.100276
    18  C   -0.099232
    19  C   -0.013387
    20  C   -0.104320
    21  C   -0.063927
    22  C    0.318245
    23  O   -0.274505
    24  O   -0.255943
    25  C   -0.055280
    26  C   -0.078588
    27  C   -0.109876
    28  C   -0.000078
    29  C   -0.071617
    30  C   -0.061819
    31  C   -0.092384
    32  C    0.088033
    33  C   -0.014629
    34  N   -0.287657
    35  C    0.021188
    36  C    0.128655
    37  C    0.040794
    38  C   -0.115706
    39  C   -0.104777
    40  C    0.028103
    41  N   -0.085513
    42  C   -0.007760
    43  C   -0.110765
    44  C   -0.102164
    45  C   -0.106696
    46  C   -0.012186
    47  C   -0.111558
    48  C   -0.067115
    49  C    0.320416
    50  O   -0.278628
    51  O   -0.254171
    52  C   -0.055720
    53  C   -0.078919
    54  O   -0.453866
    55  H    0.055907
    56  H    0.062143
    57  H    0.059498
    58  H    0.042235
    59  H    0.048510
    60  H    0.053898
    61  H    0.047570
    62  H    0.048253
    63  H    0.038305
    64  H    0.060976
    65  H    0.049242
    66  H    0.056114
    67  H    0.046055
    68  H    0.050874
    69  H    0.064909
    70  H    0.058371
    71  H    0.039698
    72  H    0.061666
    73  H    0.047522
    74  H    0.079778
    75  H    0.062569
    76  H    0.076313
    77  H    0.071143
    78  H    0.074171
    79  H    0.053791
    80  H    0.071719
    81  H    0.075290
    82  H    0.055856
    83  H    0.062751
    84  H    0.091713
    85  H    0.054308
    86  H    0.056484
    87  H    0.086609
    88  H    0.052458
    89  H    0.058373
    90  H    0.053987
    91  H    0.051205
    92  H    0.088892
    93  H    0.080732
    94  H    0.065575
    95  H    0.057216
    96  H    0.056666
    97  H    0.057136
    98  H    0.082655
    99  H    0.071087
   100  H    0.067549
   101  H    0.089116
   102  H    0.066117
   103  H    0.054825
   104  H    0.066894
   105  H    0.075838
   106  H    0.073055
   107  H    0.078848
   108  H    0.075316
   109  H    0.073281
   110  H    0.055723
 Sum of Mulliken charges =  -0.00000
 Mulliken charges with hydrogens summed into heavy atoms:
               1
     1  C   -0.021550
     2  C    0.001640
     3  C    0.000397
     4  C   -0.030564
     5  C    0.088974
     6  C   -0.014618
     7  N   -0.283229
     8  C    0.015313
     9  C    0.130016
    10  C    0.082876
    11  C   -0.012365
    12  C   -0.012067
    13  C    0.041579
    14  N   -0.294084
    15  C    0.087480
    16  C    0.009696
    17  C   -0.003347
    18  C    0.024048
    19  C    0.087976
    20  C    0.022980
    21  C   -0.001358
    22  C    0.318245
    23  O   -0.274505
    24  O   -0.255943
    25  C    0.166346
    26  C    0.122212
    27  C    0.008731
    28  C   -0.000078
    29  C    0.020096
    30  C   -0.007512
    31  C   -0.035900
    32  C    0.088033
    33  C   -0.014629
    34  N   -0.287657
    35  C    0.021188
    36  C    0.128655
    37  C    0.127403
    38  C   -0.004876
    39  C    0.000415
    40  C    0.028103
    41  N   -0.085513
    42  C    0.161864
    43  C    0.012026
    44  C    0.011637
    45  C    0.047046
    46  C    0.144479
    47  C    0.009383
    48  C   -0.000221
    49  C    0.320416
    50  O   -0.278628
    51  O   -0.254171
    52  C    0.172021
    53  C    0.125402
    54  O   -0.453866
 Electronic spatial extent (au):  <R**2>=          45826.2874
 Charge=              0.0000 electrons
 Dipole moment (field-independent basis, Debye):
    X=             -3.3636    Y=              1.5795    Z=             -4.9641  Tot=              6.2009
 Quadrupole moment (field-independent basis, Debye-Ang):
   XX=           -296.6331   YY=           -291.2513   ZZ=           -298.1840
   XY=            -10.7536   XZ=             13.0459   YZ=             11.1095
 Traceless Quadrupole moment (field-independent basis, Debye-Ang):
   XX=             -1.2769   YY=              4.1048   ZZ=             -2.8279
   XY=            -10.7536   XZ=             13.0459   YZ=             11.1095
 Octapole moment (field-independent basis, Debye-Ang**2):
  XXX=           -293.7019  YYY=             -0.6987  ZZZ=            -15.4111  XYY=            -11.0131
  XXY=            -46.5659  XXZ=            -68.3436  XZZ=             10.0138  YZZ=              8.5368
  YYZ=            -25.2592  XYZ=            -23.5397
 Hexadecapole moment (field-independent basis, Debye-Ang**3):
 XXXX=         -45025.9966 YYYY=          -8098.2918 ZZZZ=          -4480.6262 XXXY=          -1156.8905
 XXXZ=            178.8126 YYYX=           -346.8143 YYYZ=             93.8716 ZZZX=            -18.6548
 ZZZY=              3.2933 XXYY=          -8032.4361 XXZZ=          -7904.8771 YYZZ=          -2181.3869
 XXYZ=            159.4735 YYXZ=             98.6532 ZZXY=            -95.5115
 N-N= 7.853190786206D+03 E-N=-2.108291534609D+04  KE= 2.279151308675D+03
 ******************************Gaussian NBO Version 3.1******************************
             N A T U R A L   A T O M I C   O R B I T A L   A N D
          N A T U R A L   B O N D   O R B I T A L   A N A L Y S I S
 ******************************Gaussian NBO Version 3.1******************************
       /RESON  / : Allow strongly delocalized NBO set
       /NLMO   / : Form Natural Localized Molecular Orbitals
       /NMR /    : Analyze NMR Sheilding Tensor 

 Analyzing the SCF density

 Job title: pleiokomenine_C_1a                                              

 Storage needed:    355564 in NPA,    438187 in NBO,   2133784 in NLMO ( 104796000 available)
 GSVD:  LWork=     -108884 too small for GESVD, short by      536270 words or      536270 for optimal perf.


 NATURAL POPULATIONS:  Natural atomic orbital occupancies 
                                                          
   NAO  Atom  No  lang   Type(AO)    Occupancy      Energy
 ----------------------------------------------------------
     1    C    1  S      Cor( 1S)     1.99993     -10.93822
     2    C    1  S      Val( 2S)     1.07744      -0.16931
     3    C    1  px     Val( 2p)     0.99753       0.11443
     4    C    1  py     Val( 2p)     0.98152       0.16108
     5    C    1  pz     Val( 2p)     1.00413       0.06335
 
     6    C    2  S      Cor( 1S)     1.99991     -10.94707
     7    C    2  S      Val( 2S)     1.07794      -0.17410
     8    C    2  px     Val( 2p)     0.95920       0.13708
     9    C    2  py     Val( 2p)     0.95783       0.18089
    10    C    2  pz     Val( 2p)     0.98892       0.07712
 
    11    C    3  S      Cor( 1S)     1.99994     -10.93760
    12    C    3  S      Val( 2S)     1.08496      -0.17273
    13    C    3  px     Val( 2p)     0.98344       0.12407
    14    C    3  py     Val( 2p)     0.97188       0.16944
    15    C    3  pz     Val( 2p)     0.99326       0.07041
 
    16    C    4  S      Cor( 1S)     1.99993     -10.93225
    17    C    4  S      Val( 2S)     1.07207      -0.16444
    18    C    4  px     Val( 2p)     1.00013       0.11655
    19    C    4  py     Val( 2p)     0.98414       0.16387
    20    C    4  pz     Val( 2p)     1.03110       0.05852
 
    21    C    5  S      Cor( 1S)     1.99985     -10.97997
    22    C    5  S      Val( 2S)     1.06174      -0.17879
    23    C    5  px     Val( 2p)     0.90645       0.14285
    24    C    5  py     Val( 2p)     0.96960       0.14814
    25    C    5  pz     Val( 2p)     0.94974       0.07586
 
    26    C    6  S      Cor( 1S)     1.99990     -10.94066
    27    C    6  S      Val( 2S)     1.08506      -0.18354
    28    C    6  px     Val( 2p)     0.96585       0.13736
    29    C    6  py     Val( 2p)     0.96623       0.15448
    30    C    6  pz     Val( 2p)     1.00668       0.06999
 
    31    N    7  S      Cor( 1S)     1.99998     -15.26177
    32    N    7  S      Val( 2S)     1.40792      -0.58776
    33    N    7  px     Val( 2p)     1.46983      -0.13486
    34    N    7  py     Val( 2p)     1.08990       0.02342
    35    N    7  pz     Val( 2p)     1.30461      -0.07139
 
    36    C    8  S      Cor( 1S)     1.99996     -10.99952
    37    C    8  S      Val( 2S)     1.10692      -0.22445
    38    C    8  px     Val( 2p)     0.98030       0.08915
    39    C    8  py     Val( 2p)     0.95500       0.11121
    40    C    8  pz     Val( 2p)     0.94231       0.11292
 
    41    C    9  S      Cor( 1S)     1.99996     -11.04386
    42    C    9  S      Val( 2S)     1.11274      -0.24997
    43    C    9  px     Val( 2p)     0.93192       0.09450
    44    C    9  py     Val( 2p)     0.85296       0.11832
    45    C    9  pz     Val( 2p)     0.92868       0.10332
 
    46    C   10  S      Cor( 1S)     1.99994     -11.00862
    47    C   10  S      Val( 2S)     1.09243      -0.20854
    48    C   10  px     Val( 2p)     0.92248       0.12457
    49    C   10  py     Val( 2p)     0.95168       0.09153
    50    C   10  pz     Val( 2p)     0.96078       0.08853
 
    51    C   11  S      Cor( 1S)     1.99994     -10.97399
    52    C   11  S      Val( 2S)     1.10439      -0.20902
    53    C   11  px     Val( 2p)     1.00107       0.09000
    54    C   11  py     Val( 2p)     0.98376       0.09458
    55    C   11  pz     Val( 2p)     0.99531       0.08614
 
    56    C   12  S      Cor( 1S)     1.99996     -10.97168
    57    C   12  S      Val( 2S)     1.08846      -0.19179
    58    C   12  px     Val( 2p)     1.00296       0.09270
    59    C   12  py     Val( 2p)     0.98277       0.09377
    60    C   12  pz     Val( 2p)     1.00392       0.09448
 
    61    C   13  S      Cor( 1S)     1.99998     -10.99874
    62    C   13  S      Val( 2S)     1.10015      -0.21580
    63    C   13  px     Val( 2p)     0.94530       0.11570
    64    C   13  py     Val( 2p)     0.94230       0.11882
    65    C   13  pz     Val( 2p)     0.94904       0.11276
 
    66    N   14  S      Cor( 1S)     1.99999     -15.22813
    67    N   14  S      Val( 2S)     1.41371      -0.57168
    68    N   14  px     Val( 2p)     1.56258      -0.15309
    69    N   14  py     Val( 2p)     1.13636       0.01991
    70    N   14  pz     Val( 2p)     1.17150       0.00073
 
    71    C   15  S      Cor( 1S)     1.99994     -11.00572
    72    C   15  S      Val( 2S)     1.06931      -0.18571
    73    C   15  px     Val( 2p)     1.01508       0.08681
    74    C   15  py     Val( 2p)     0.88201       0.12477
    75    C   15  pz     Val( 2p)     0.99069       0.07904
 
    76    C   16  S      Cor( 1S)     1.99996     -10.97459
    77    C   16  S      Val( 2S)     1.08432      -0.18800
    78    C   16  px     Val( 2p)     1.00826       0.09338
    79    C   16  py     Val( 2p)     1.00035       0.09923
    80    C   16  pz     Val( 2p)     0.96584       0.10399
 
    81    C   17  S      Cor( 1S)     1.99995     -10.97584
    82    C   17  S      Val( 2S)     1.09041      -0.19403
    83    C   17  px     Val( 2p)     1.00458       0.09431
    84    C   17  py     Val( 2p)     0.97260       0.09901
    85    C   17  pz     Val( 2p)     0.99672       0.09556
 
    86    C   18  S      Cor( 1S)     1.99994     -10.97080
    87    C   18  S      Val( 2S)     1.09344      -0.19162
    88    C   18  px     Val( 2p)     1.00705       0.09573
    89    C   18  py     Val( 2p)     0.97908       0.09669
    90    C   18  pz     Val( 2p)     0.98673       0.10038
 
    91    C   19  S      Cor( 1S)     1.99995     -11.00072
    92    C   19  S      Val( 2S)     1.07113      -0.18417
    93    C   19  px     Val( 2p)     1.01719       0.08921
    94    C   19  py     Val( 2p)     0.97390       0.07794
    95    C   19  pz     Val( 2p)     0.89739       0.12660
 
    96    C   20  S      Cor( 1S)     1.99992     -10.97545
    97    C   20  S      Val( 2S)     1.10182      -0.20380
    98    C   20  px     Val( 2p)     1.00147       0.09145
    99    C   20  py     Val( 2p)     0.94842       0.10423
   100    C   20  pz     Val( 2p)     1.01511       0.09250
 
   101    C   21  S      Cor( 1S)     1.99994     -11.00262
   102    C   21  S      Val( 2S)     1.11376      -0.23453
   103    C   21  px     Val( 2p)     0.97366       0.08519
   104    C   21  py     Val( 2p)     0.99050       0.08048
   105    C   21  pz     Val( 2p)     1.00219       0.07296
 
   106    C   22  S      Cor( 1S)     1.99991     -11.10353
   107    C   22  S      Val( 2S)     1.05597      -0.25293
   108    C   22  px     Val( 2p)     0.88432       0.12181
   109    C   22  py     Val( 2p)     0.78221       0.16716
   110    C   22  pz     Val( 2p)     0.87700       0.01106
 
   111    O   23  S      Cor( 1S)     1.99999     -20.09007
   112    O   23  S      Val( 2S)     1.80839      -1.04917
   113    O   23  px     Val( 2p)     1.43664      -0.14788
   114    O   23  py     Val( 2p)     1.71324      -0.25543
   115    O   23  pz     Val( 2p)     1.35027      -0.14923
 
   116    O   24  S      Cor( 1S)     1.99999     -20.20673
   117    O   24  S      Val( 2S)     1.72950      -1.01929
   118    O   24  px     Val( 2p)     1.53952      -0.23408
   119    O   24  py     Val( 2p)     1.28417      -0.11812
   120    O   24  pz     Val( 2p)     1.71447      -0.30750
 
   121    C   25  S      Cor( 1S)     1.99984     -11.03895
   122    C   25  S      Val( 2S)     1.07666      -0.22032
   123    C   25  px     Val( 2p)     0.90044       0.07893
   124    C   25  py     Val( 2p)     1.00539       0.04521
   125    C   25  pz     Val( 2p)     0.98254       0.05924
 
   126    C   26  S      Cor( 1S)     1.99992     -11.00891
   127    C   26  S      Val( 2S)     1.06507      -0.18925
   128    C   26  px     Val( 2p)     1.03215       0.06737
   129    C   26  py     Val( 2p)     0.93157       0.08833
   130    C   26  pz     Val( 2p)     0.98757       0.07800
 
   131    C   27  S      Cor( 1S)     1.99996     -10.97260
   132    C   27  S      Val( 2S)     1.08195      -0.17717
   133    C   27  px     Val( 2p)     0.99019       0.10486
   134    C   27  py     Val( 2p)     1.02412       0.09378
   135    C   27  pz     Val( 2p)     0.99123       0.10385
 
   136    C   28  S      Cor( 1S)     1.99990     -10.94703
   137    C   28  S      Val( 2S)     1.07746      -0.17395
   138    C   28  px     Val( 2p)     0.96380       0.13144
   139    C   28  py     Val( 2p)     0.95572       0.18401
   140    C   28  pz     Val( 2p)     0.99012       0.07688
 
   141    C   29  S      Cor( 1S)     1.99993     -10.93504
   142    C   29  S      Val( 2S)     1.08568      -0.16832
   143    C   29  px     Val( 2p)     0.98193       0.12290
   144    C   29  py     Val( 2p)     1.00318       0.16029
   145    C   29  pz     Val( 2p)     0.97988       0.07495
 
   146    C   30  S      Cor( 1S)     1.99994     -10.94208
   147    C   30  S      Val( 2S)     1.08335      -0.17613
   148    C   30  px     Val( 2p)     0.98278       0.11640
   149    C   30  py     Val( 2p)     0.97289       0.16685
   150    C   30  pz     Val( 2p)     0.99346       0.06618
 
   151    C   31  S      Cor( 1S)     1.99993     -10.93560
   152    C   31  S      Val( 2S)     1.07077      -0.16811
   153    C   31  px     Val( 2p)     1.00390       0.10885
   154    C   31  py     Val( 2p)     0.98055       0.16318
   155    C   31  pz     Val( 2p)     1.03549       0.05388
 
   156    C   32  S      Cor( 1S)     1.99986     -10.98457
   157    C   32  S      Val( 2S)     1.05966      -0.18172
   158    C   32  px     Val( 2p)     0.90548       0.13518
   159    C   32  py     Val( 2p)     0.97300       0.14445
   160    C   32  pz     Val( 2p)     0.95032       0.07119
 
   161    C   33  S      Cor( 1S)     1.99990     -10.94251
   162    C   33  S      Val( 2S)     1.08177      -0.18308
   163    C   33  px     Val( 2p)     0.97145       0.13016
   164    C   33  py     Val( 2p)     0.95940       0.15961
   165    C   33  pz     Val( 2p)     1.01645       0.06444
 
   166    N   34  S      Cor( 1S)     1.99998     -15.27040
   167    N   34  S      Val( 2S)     1.40398      -0.59603
   168    N   34  px     Val( 2p)     1.48238      -0.15008
   169    N   34  py     Val( 2p)     1.07495       0.01943
   170    N   34  pz     Val( 2p)     1.31499      -0.08637
 
   171    C   35  S      Cor( 1S)     1.99996     -11.01891
   172    C   35  S      Val( 2S)     1.11056      -0.24381
   173    C   35  px     Val( 2p)     0.98498       0.07089
   174    C   35  py     Val( 2p)     0.94135       0.09951
   175    C   35  pz     Val( 2p)     0.94086       0.09702
 
   176    C   36  S      Cor( 1S)     1.99996     -11.05724
   177    C   36  S      Val( 2S)     1.11164      -0.26286
   178    C   36  px     Val( 2p)     0.92934       0.08248
   179    C   36  py     Val( 2p)     0.86304       0.10059
   180    C   36  pz     Val( 2p)     0.92457       0.08885
 
   181    C   37  S      Cor( 1S)     1.99991     -11.04052
   182    C   37  S      Val( 2S)     1.12062      -0.26191
   183    C   37  px     Val( 2p)     0.98349       0.05760
   184    C   37  py     Val( 2p)     0.90952       0.07612
   185    C   37  pz     Val( 2p)     0.91342       0.08381
 
   186    C   38  S      Cor( 1S)     1.99994     -10.98786
   187    C   38  S      Val( 2S)     1.10453      -0.22290
   188    C   38  px     Val( 2p)     1.00509       0.07517
   189    C   38  py     Val( 2p)     0.98650       0.07966
   190    C   38  pz     Val( 2p)     0.99017       0.07441
 
   191    C   39  S      Cor( 1S)     1.99996     -10.98998
   192    C   39  S      Val( 2S)     1.09225      -0.21268
   193    C   39  px     Val( 2p)     1.00186       0.07616
   194    C   39  py     Val( 2p)     0.98384       0.07550
   195    C   39  pz     Val( 2p)     0.99475       0.07973
 
   196    C   40  S      Cor( 1S)     1.99998     -11.02429
   197    C   40  S      Val( 2S)     1.10501      -0.24721
   198    C   40  px     Val( 2p)     0.94851       0.08799
   199    C   40  py     Val( 2p)     0.94882       0.09094
   200    C   40  pz     Val( 2p)     0.94773       0.08222
 
   201    N   41  S      Cor( 1S)     1.99999     -15.41659
   202    N   41  S      Val( 2S)     1.40183      -0.66014
   203    N   41  px     Val( 2p)     1.21748      -0.11930
   204    N   41  py     Val( 2p)     1.13677      -0.08927
   205    N   41  pz     Val( 2p)     1.21763      -0.11927
 
   206    C   42  S      Cor( 1S)     1.99991     -11.03464
   207    C   42  S      Val( 2S)     1.08952      -0.23180
   208    C   42  px     Val( 2p)     1.02724       0.05142
   209    C   42  py     Val( 2p)     0.87739       0.07447
   210    C   42  pz     Val( 2p)     0.96249       0.07545
 
   211    C   43  S      Cor( 1S)     1.99997     -10.99893
   212    C   43  S      Val( 2S)     1.07899      -0.20981
   213    C   43  px     Val( 2p)     1.00108       0.07210
   214    C   43  py     Val( 2p)     1.02186       0.05973
   215    C   43  pz     Val( 2p)     0.97919       0.07081
 
   216    C   44  S      Cor( 1S)     1.99996     -10.99614
   217    C   44  S      Val( 2S)     1.08470      -0.21080
   218    C   44  px     Val( 2p)     1.01018       0.07099
   219    C   44  py     Val( 2p)     0.97887       0.07434
   220    C   44  pz     Val( 2p)     0.99607       0.07300
 
   221    C   45  S      Cor( 1S)     1.99994     -10.98846
   222    C   45  S      Val( 2S)     1.09356      -0.20894
   223    C   45  px     Val( 2p)     1.00082       0.07664
   224    C   45  py     Val( 2p)     0.97585       0.08801
   225    C   45  pz     Val( 2p)     1.01078       0.07382
 
   226    C   46  S      Cor( 1S)     1.99992     -11.02747
   227    C   46  S      Val( 2S)     1.09077      -0.22615
   228    C   46  px     Val( 2p)     0.90930       0.08946
   229    C   46  py     Val( 2p)     0.95855       0.06157
   230    C   46  pz     Val( 2p)     1.00317       0.05797
 
   231    C   47  S      Cor( 1S)     1.99992     -10.99690
   232    C   47  S      Val( 2S)     1.09910      -0.22469
   233    C   47  px     Val( 2p)     0.99174       0.07281
   234    C   47  py     Val( 2p)     0.95880       0.07785
   235    C   47  pz     Val( 2p)     1.02578       0.05988
 
   236    C   48  S      Cor( 1S)     1.99995     -11.01632
[...]
 Sum       29.7005        8.1146      21.5858        -4.4224      34.1229

 Contributions to Isotropic shielding for atom   96 (    32.5655 ppm):
                         Standard Origin              Atomic Origin
 NLMO      Total    Paramagnetic  Diamagnetic   Paramagnetic  Diamagnetic
   89      -0.3128        0.4796      -0.7924        -1.0650       0.7521
   95      -0.1502        0.9664      -1.1166        -1.0062       0.8561
   97       2.4853       -3.1098       5.5951         1.6728       0.8125
   98      -0.3539        0.7505      -1.1044        -0.2912      -0.0627
   99       0.4663       -0.8189       1.2852        -0.1808       0.6471
  102       0.3860       -2.0262       2.4122        -0.4009       0.7869
  103      -0.2248       -0.4562       0.2314        -1.0136       0.7887
  105       1.1143        1.2902      -0.1758         0.2326       0.8817
  106       0.0736       -1.3772       1.4508        -0.8398       0.9135
  108      26.0940        0.5618      25.5322         0.2957      25.7983
  109       1.6492        1.8820      -0.2327        -0.1403       1.7895
 Sum       31.2271       -1.8577      33.0849        -2.7366      33.9637

 Contributions to Isotropic shielding for atom   97 (    32.4733 ppm):
                         Standard Origin              Atomic Origin
 NLMO      Total    Paramagnetic  Diamagnetic   Paramagnetic  Diamagnetic
   97       1.4854       -0.1574       1.6428         0.7147       0.7707
   98      -0.3760        1.7316      -2.1076        -1.4257       1.0497
  102       0.2383       -0.9333       1.1717         0.2505      -0.0122
  105       0.0716        4.5548      -4.4832        -0.8793       0.9509
  108       2.3433        0.7861       1.5572         0.5681       1.7751
  109      26.4167       -0.2934      26.7101         0.6232      25.7936
  117      -0.0270       -1.0594       1.0323        -0.8763       0.8493
 Sum       30.1523        4.6291      25.5232        -1.0248      31.1770

 Contributions to Isotropic shielding for atom   98 (    31.6574 ppm):
                         Standard Origin              Atomic Origin
 NLMO      Total    Paramagnetic  Diamagnetic   Paramagnetic  Diamagnetic
   71      -1.2869        0.7194      -2.0063        -2.3875       1.1006
   80      -0.1630        1.2743      -1.4373        -1.2579       1.0949
   85       2.5699       -2.3556       4.9255         1.7309       0.8390
  100       0.8895       -1.2909       2.1804         0.2387       0.6508
  110       0.3889        1.2432      -0.8543        -0.5133       0.9022
  111      25.6145        0.2297      25.3848         0.4752      25.1393
  112       1.6888        1.8815      -0.1927        -0.3202       2.0090
  114      -0.0402       -1.7486       1.7084        -1.1359       1.0958
  121       0.0693       -1.1425       1.2118        -0.7238       0.7931
 Sum       29.7309       -1.1895      30.9203        -3.8937      33.6246

 Contributions to Isotropic shielding for atom   99 (    32.8658 ppm):
                         Standard Origin              Atomic Origin
 NLMO      Total    Paramagnetic  Diamagnetic   Paramagnetic  Diamagnetic
   71      -0.4196        0.3550      -0.7745        -1.1572       0.7377
   83      -0.3838        1.2594      -1.6432        -0.9911       0.6073
   85       1.6824       -0.6149       2.2973         0.9505       0.7320
   87      -0.3790        0.1284      -0.5074        -1.2178       0.8388
   89      -0.1408        0.1747      -0.3155        -1.0599       0.9191
  100       0.6517       -0.9698       1.6215         0.6057       0.0460
  110      -0.1076        3.5439      -3.6516        -0.7685       0.6609
  111       2.0972        1.9049       0.1922         0.1631       1.9340
  112      26.0653       -0.1108      26.1761         0.5817      25.4837
  118       0.7243       -1.0709       1.7952        -0.1024       0.8267
  120       1.4437       -0.6620       2.1057         0.5280       0.9157
  121      -0.2191       -3.6137       3.3946        -1.1939       0.9748
  124       0.0441       -1.6057       1.6498        -0.4500       0.4941
  191      -0.6442        1.4542      -2.0984         0.2202      -0.8643
 Sum       30.4146        0.1727      30.2419        -3.8918      34.3064

 Contributions to Isotropic shielding for atom  100 (    31.4750 ppm):
                         Standard Origin              Atomic Origin
 NLMO      Total    Paramagnetic  Diamagnetic   Paramagnetic  Diamagnetic
   84      -0.2696        0.8203      -1.0899        -1.0335       0.7639
   88      -0.3417        1.0719      -1.4136        -1.0730       0.7313
   99      -0.6242        1.4717      -2.0958        -1.5279       0.9038
  107      -0.2478       -2.2904       2.0426        -0.7765       0.5287
  110       1.0068       -0.4026       1.4094         0.1291       0.8776
  112       0.1031        1.0787      -0.9756        -0.8314       0.9346
  113      26.6843        0.1389      26.5454         1.1204      25.5639
  114       1.1449        3.4907      -2.3458        -0.7586       1.9035
  116      -0.4219       -3.0153       2.5934        -0.4448       0.0229
  120       0.6476       -0.6456       1.2932         0.2272       0.4204
  121       0.2648       -2.0171       2.2819        -0.7100       0.9748
  191      -0.6301        1.1794      -1.8096         0.2590      -0.8891
 Sum       27.3163        0.8806      26.4357        -5.4200      32.7363

 Contributions to Isotropic shielding for atom  101 (    30.9373 ppm):
                         Standard Origin              Atomic Origin
 NLMO      Total    Paramagnetic  Diamagnetic   Paramagnetic  Diamagnetic
   71      -0.2798        0.1719      -0.4517        -1.1187       0.8389
   84      -0.1795        0.6450      -0.8244        -1.0335       0.8540
   99      -0.7336        1.1451      -1.8786        -1.4047       0.6711
  101       0.0572        1.1040      -1.0467        -0.9643       1.0215
  104       0.0136       -1.5587       1.5724        -0.7486       0.7623
  110       1.0822       -0.5316       1.6138         0.1125       0.9696
  111      -0.0944        1.2648      -1.3592        -1.2712       1.1767
  112       0.3952        1.0604      -0.6652        -0.3100       0.7053
  113       0.8503        3.1823      -2.3321        -0.9024       1.7527
  114      25.9289        0.3894      25.5395         1.0307      24.8982
  121       0.0823       -1.0419       1.1241        -0.5368       0.6191
  195       0.4076       -1.3859       1.7935         1.2291      -0.8215
 Sum       27.5300        4.4447      23.0853        -5.9179      33.4478

 Contributions to Isotropic shielding for atom  102 (    31.6192 ppm):
                         Standard Origin              Atomic Origin
 NLMO      Total    Paramagnetic  Diamagnetic   Paramagnetic  Diamagnetic
   83      -0.2748        0.7802      -1.0550        -1.0989       0.8241
   87       0.3154       -0.7511       1.0665         0.0290       0.2864
   89      -0.4784        0.7180      -1.1965        -1.0939       0.6155
   97      -0.3361        1.6545      -1.9905        -1.0621       0.7261
   98       1.4940       -0.1499       1.6439         0.5594       0.9345
  107      -0.3522       -3.2139       2.8618        -0.7147       0.3625
  113      -0.3582       -2.7529       2.3946        -0.2202      -0.1381
  115       0.5797        1.6976      -1.1178        -0.2699       0.8496
  116      26.4159       -0.4570      26.8730         0.7755      25.6404
  117       1.4763        4.6540      -3.1777        -0.4326       1.9088
  118      -0.5740        0.7688      -1.3428        -1.6683       1.0943
  120       0.3251       -1.4145       1.7396        -0.5537       0.8788
  121       0.5517       -1.9186       2.4703        -1.1546       1.7063
  191      -0.5737        0.7420      -1.3158         0.3341      -0.9078
 Sum       28.2106        0.3571      27.8535        -6.5709      34.7816

 Contributions to Isotropic shielding for atom  103 (    32.2329 ppm):
                         Standard Origin              Atomic Origin
 NLMO      Total    Paramagnetic  Diamagnetic   Paramagnetic  Diamagnetic
   87       0.4332       -0.7944       1.2276         0.2288       0.2044
   94      -0.1410        1.2816      -1.4226        -0.9982       0.8571
   97      -0.2715        1.6731      -1.9446        -1.0890       0.8175
   98       1.7870       -0.2738       2.0607         0.8006       0.9864
  107      -0.0583       -1.1431       1.0848        -0.6685       0.6101
  109      -0.0598       -1.0901       1.0303        -0.8420       0.7821
  115       0.7477        1.7178      -0.9701        -0.3182       1.0659
  116       1.4087        4.2882      -2.8795        -0.4922       1.9009
  117      26.5555       -0.4645      27.0200         0.7176      25.8378
  118      -0.2324        1.3108      -1.5432        -0.5717       0.3393
  119      -0.2277        0.3347      -0.5623        -1.3790       1.1513
  121       0.1896       -0.5172       0.7068        -0.8407       1.0303
 Sum       30.1308        6.3231      23.8077        -5.4524      35.5832

 Contributions to Isotropic shielding for atom  104 (    31.2078 ppm):
                         Standard Origin              Atomic Origin
 NLMO      Total    Paramagnetic  Diamagnetic   Paramagnetic  Diamagnetic
   81      -0.3478        1.1610      -1.5088        -1.0523       0.7046
   82      -0.1563        0.4863      -0.6427        -1.1021       0.9458
   86      -0.4526        1.8059      -2.2585        -1.5609       1.1083
   87       2.5448       -1.8695       4.4144         1.6058       0.9390
   91      -0.1604        1.1672      -1.3276        -0.8829       0.7225
   92      -0.1248        1.0881      -1.2130        -0.9218       0.7970
   98       0.3940       -1.2854       1.6794         0.1774       0.2166
  115       1.0539        1.9206      -0.8667        -0.0699       1.1238
  117      -0.1986       -1.0801       0.8815        -1.3671       1.1685
  118       0.1727        4.4344      -4.2617        -0.7176       0.8903
  119      25.8663       -0.4807      26.3470         0.3496      25.5167
  122       0.9812       -2.3948       3.3760        -0.6937       1.6748
  124       0.1488       -0.8745       1.0233        -0.3033       0.4521
  127      -0.2338       -1.3421       1.1083        -0.6477       0.4139
  193      -0.7761        0.4536      -1.2297         0.2275      -1.0036
  194      -0.0826       -1.0322       0.9495        -0.6590       0.5764
 Sum       28.6286        2.1578      26.4707        -7.6181      36.2467

 Contributions to Isotropic shielding for atom  105 (    30.6174 ppm):
                         Standard Origin              Atomic Origin
 NLMO      Total    Paramagnetic  Diamagnetic   Paramagnetic  Diamagnetic
  120      -0.7502        0.4036      -1.1538        -1.6579       0.9077
  121      -0.3124        0.9863      -1.2986        -1.8386       1.5262
  122      -1.4544        1.6481      -3.1025        -2.3049       0.8506
  123       2.7917       -4.8467       7.6384         1.3774       1.4143
  124      26.1798        0.9983      25.1815         1.0230      25.1568
  125       0.8873        2.6423      -1.7549        -0.9877       1.8750
  126       1.5823        1.2979       0.2844        -0.4624       2.0447
  191       0.2281       -0.8334       1.0615         0.9947      -0.7666
  193       0.8387       -0.1786       1.0174         0.8891      -0.0504
 Sum       29.9910        2.1177      27.8733        -2.9673      32.9582

 Contributions to Isotropic shielding for atom  106 (    30.5597 ppm):
                         Standard Origin              Atomic Origin
 NLMO      Total    Paramagnetic  Diamagnetic   Paramagnetic  Diamagnetic
  120      -1.2203        0.7800      -2.0003        -2.1138       0.8936
  121      -0.4850        1.9504      -2.4354        -2.0461       1.5611
  122      -2.2533        1.7273      -3.9806        -3.0367       0.7834
  123       1.0450        1.0863      -0.0412        -0.4211       1.4661
  124       1.2312        1.9612      -0.7300        -0.6410       1.8722
  125      26.5863        0.5797      26.0066         1.3560      25.2303
  126       1.2099        4.4748      -3.2650        -0.8324       2.0422
  191       0.5636       -1.5747       2.1383         1.3372      -0.7736
  192       0.9019        0.9011       0.0008         1.1253      -0.2234
  193       1.6317       -1.6715       3.3032         1.6922      -0.0604
  194       0.4460        1.4570      -1.0110        -0.0265       0.4724
 Sum       29.6571       11.6716      17.9855        -3.6068      33.2640

 Contributions to Isotropic shielding for atom  107 (    30.5010 ppm):
                         Standard Origin              Atomic Origin
 NLMO      Total    Paramagnetic  Diamagnetic   Paramagnetic  Diamagnetic
  120      -0.6004        0.2294      -0.8298        -1.2212       0.6207
  121      -0.0921        0.9070      -0.9991        -1.1231       1.0310
  122      -0.6521        0.5207      -1.1728        -0.6882       0.0361
  123       1.5197       -1.0822       2.6019        -0.5556       2.0753
  124       1.3256        0.6678       0.6578        -0.6701       1.9958
  125       0.4530        3.8457      -3.3927        -1.5326       1.9856
  126      25.9279        0.4325      25.4954         0.7548      25.1731
  193       0.9638       -0.6066       1.5704         1.4329      -0.4691
 Sum       28.8454        4.9142      23.9312        -3.6030      32.4485

 Contributions to Isotropic shielding for atom  108 (    30.9714 ppm):
                         Standard Origin              Atomic Origin
 NLMO      Total    Paramagnetic  Diamagnetic   Paramagnetic  Diamagnetic
   76      -0.2882        0.0087      -0.2970        -1.1445       0.8563
   81      -0.4749        0.7857      -1.2607        -1.1992       0.7242
   82       0.7443        1.3047      -0.5604        -0.4409       1.1852
  119      -0.1971       -1.2707       1.0735        -0.7859       0.5888
  122       1.0745       -1.1507       2.2252         0.4814       0.5931
  124       0.1494       -0.8685       1.0179        -0.2863       0.4357
  126       0.0725       -1.3812       1.4537        -0.6445       0.7170
  127      26.0498        0.1598      25.8900         0.6922      25.3576
  128       1.5802        3.3315      -1.7513        -0.4048       1.9850
  129       1.8798        0.3589       1.5209         0.0494       1.8304
  193      -1.0686        0.8465      -1.9152         0.2134      -1.2820
 Sum       29.5218        2.1249      27.3969        -3.4696      32.9914

 Contributions to Isotropic shielding for atom  109 (    30.7277 ppm):
                         Standard Origin              Atomic Origin
 NLMO      Total    Paramagnetic  Diamagnetic   Paramagnetic  Diamagnetic
   75      -0.5075        0.4239      -0.9314        -1.2224       0.7149
   76      -0.5774        0.1930      -0.7704        -1.9398       1.3625
   82       1.1663        0.4465       0.7197        -0.0872       1.2535
  122       0.6814       -0.5681       1.2495         0.3766       0.3049
  126       0.0131       -1.3650       1.3782        -0.6059       0.6190
  127       1.4946        3.3753      -1.8808        -0.4747       1.9693
  128      26.0043        0.2367      25.7676         0.6713      25.3330
  129       1.9766       -0.1137       2.0903         0.1812       1.7953
  193      -0.5478        0.6508      -1.1986         0.3014      -0.8492
 Sum       29.7037        3.2796      26.4241        -2.7995      32.5032

 Contributions to Isotropic shielding for atom  110 (    31.9811 ppm):
                         Standard Origin              Atomic Origin
 NLMO      Total    Paramagnetic  Diamagnetic   Paramagnetic  Diamagnetic
   76      -0.4006       -0.1624      -0.2382        -1.6073       1.2067
   82       1.8999       -2.7325       4.6324         1.1273       0.7727
   86       0.0139       -0.1052       0.1191        -1.0157       1.0296
  122       0.5334       -0.6306       1.1640        -0.0446       0.5780
  127       1.8067        1.2126       0.5941        -0.1085       1.9152
  128       1.8975        0.6462       1.2513         0.0022       1.8953
  129      26.2842        0.8442      25.4400         0.5833      25.7009
 Sum       32.0351       -0.9277      32.9628        -1.0633      33.0984
 
 1\1\GINC-PCSN02\SP\RHF\STO-3G\C45H56N4O5\ABENIDD\30-May-2024\0\\# nmr=
 giao hf/sto-3g pop=nbo geom=connectivity\\pleiokomenine_C_1a\\0,1\C,0,
 0.,0.,0.\C,0,1.4016,0.,0.\C,0,2.0979,1.228,0.\C,0,1.4178,2.4522,-0.003
 2\C,0,0.0349,2.4463,-0.0257\C,0,-0.6602,1.2192,-0.006\N,0,-0.8484,3.56
 28,-0.095\C,0,-2.136,1.5217,0.0808\C,0,-2.0934,2.9342,-0.6077\C,0,-3.1
 77,0.6565,-0.6305\C,0,-1.944,2.7426,-2.1868\C,0,-3.0888,1.9124,-2.7696
 \C,0,-4.023,1.4679,-1.6387\N,0,-4.0919,0.2503,0.4361\C,0,-5.0126,-0.78
 26,0.0215\C,0,-5.9261,-0.1702,-1.0541\C,0,-5.1524,0.5542,-2.1719\C,0,-
 2.4925,1.3661,1.5834\C,0,-3.3047,0.0698,1.6321\C,0,-4.5759,2.7736,-0.9
 653\C,0,-3.4235,3.7041,-0.4612\C,0,-3.7266,4.318,0.8962\O,0,-4.6912,4.
 0412,1.5985\O,0,-2.8331,5.3029,1.193\C,0,-3.033,5.9126,2.4676\C,0,-0.3
 18,4.7795,-0.6895\C,0,2.1644,-1.3059,-0.0184\C,0,2.2895,-1.903,-1.4014
 \C,0,3.2505,-1.4074,-2.2925\C,0,1.4422,-2.9524,-1.8104\C,0,1.5391,-3.5
 045,-3.0937\C,0,2.4758,-2.9929,-3.976\C,0,3.3355,-1.9614,-3.5609\N,0,2
 .701,-3.3695,-5.3267\C,0,4.3178,-1.6652,-4.668\C,0,3.4283,-2.1961,-5.8
 655\C,0,4.7505,-0.2199,-4.9703\C,0,2.3819,-1.0641,-6.2629\C,0,3.0942,0
 .2064,-6.7484\C,0,4.6106,0.0533,-6.5068\N,0,6.1537,-0.0915,-4.4028\C,0
 ,6.9432,1.0541,-4.9798\C,0,6.8271,1.2439,-6.4796\C,0,5.3647,1.3271,-6.
 9007\C,0,5.6314,-2.4057,-4.3055\C,0,6.7698,-1.4395,-4.6058\C,0,5.0481,
 -1.1377,-7.4268\C,0,4.2398,-2.4295,-7.1491\C,0,5.1152,-3.6693,-7.1955\
 O,0,6.3374,-3.6607,-7.1087\O,0,4.3674,-4.7841,-7.4186\C,0,5.1163,-5.99
 94,-7.4339\C,0,1.574,-3.9556,-6.0371\O,0,6.0746,0.151,-3.0378\H,0,-0.5
 545,-0.9324,0.0174\H,0,3.187,1.2335,-0.005\H,0,1.9815,3.3776,-0.0017\H
 ,0,-2.7065,-0.214,-1.1081\H,0,-1.925,3.7217,-2.684\H,0,-0.9932,2.2696,
 -2.462\H,0,-3.6354,2.5017,-3.5162\H,0,-2.6773,1.045,-3.301\H,0,-4.4877
 ,-1.6626,-0.3685\H,0,-5.6336,-1.1121,0.8621\H,0,-6.554,-0.9543,-1.4927
 \H,0,-6.6094,0.5451,-0.5784\H,0,-4.7151,-0.2122,-2.8259\H,0,-5.852,1.1
 283,-2.791\H,0,-3.111,2.1831,1.9515\H,0,-1.6292,1.3009,2.2564\H,0,-2.6
 611,-0.8154,1.5798\H,0,-3.917,0.0196,2.5372\H,0,-5.1754,3.331,-1.698\H
 ,0,-5.2705,2.5209,-0.1577\H,0,-3.4117,4.5718,-1.1386\H,0,-2.2292,6.636
 9,2.626\H,0,-3.9888,6.445,2.4899\H,0,-2.9855,5.1644,3.2652\H,0,0.1515,
 4.5936,-1.662\H,0,0.4222,5.2379,-0.025\H,0,-1.113,5.5167,-0.8383\H,0,1
 .6741,-2.0188,0.6578\H,0,3.1672,-1.1639,0.4061\H,0,3.9331,-0.6171,-1.9
 894\H,0,0.698,-3.3483,-1.1231\H,0,0.8784,-4.315,-3.3778\H,0,4.1616,0.5
 193,-4.4094\H,0,1.7114,-1.4193,-7.0561\H,0,1.7252,-0.8047,-5.4231\H,0,
 2.6923,1.0799,-6.2199\H,0,2.8841,0.3689,-7.8132\H,0,6.5676,1.9515,-4.4
 709\H,0,7.983,0.8976,-4.6717\H,0,7.3366,2.1723,-6.7633\H,0,7.3446,0.43
 87,-7.0093\H,0,4.9019,2.2008,-6.4236\H,0,5.3031,1.4949,-7.9827\H,0,5.6
 753,-2.6225,-3.2284\H,0,5.7569,-3.3766,-4.782\H,0,7.138,-1.5027,-5.627
 5\H,0,7.6107,-1.5387,-3.9116\H,0,6.1225,-1.3097,-7.3723\H,0,4.8774,-0.
 8566,-8.4764\H,0,3.55,-2.5541,-7.9979\H,0,5.6448,-6.1382,-6.4854\H,0,5
 .8175,-6.0043,-8.274\H,0,4.4145,-6.8279,-7.5628\H,0,1.8016,-4.0668,-7.
 1016\H,0,1.3581,-4.9576,-5.6513\H,0,0.6693,-3.3432,-5.9507\\Version=ES
 64L-G16RevB.01\State=1-A\HF=-2300.2222097\RMSD=3.594e-09\Dipole=-0.128
 5366,-0.1918238,-2.428666\Quadrupole=-15.3280285,8.959785,6.3682435,3.
 405408,-6.5469808,1.0892239\PG=C01 [X(C45H56N4O5)]\\@


 GARBAGE IN, GARBAGE OUT
 Job cpu time:       0 days  0 hours 10 minutes 35.6 seconds.
 Elapsed time:       0 days  0 hours  1 minutes 47.8 seconds.
 File lengths (MBytes):  RWF=     67 Int=      0 D2E=      0 Chk=     10 Scr=      1
 Normal termination of Gaussian 16 at Thu May 30 08:49:09 2024.
