 Entering Gaussian System, Link 0=g16
 Input=1_pleiokomenine_1a_c_18.gjf
 Output=1_pleiokomenine_1a_c_18.log
 Initial command:
 /opt/gaussian/g16/l1.exe "/data/abenidd/Elvis/pleiokomenine_C/NMR_HF/1a/1_pleiokomenine_1a_c_18/Gau-24898.inp" -scrdir="/data/abenidd/Elvis/pleiokomenine_C/NMR_HF/1a/1_pleiokomenine_1a_c_18/"
 Entering Link 1 = /opt/gaussian/g16/l1.exe PID=     24900.
  
 Copyright (c) 1988-2017, Gaussian, Inc.  All Rights Reserved.
  
 This is part of the Gaussian(R) 16 program.  It is based on
 the Gaussian(R) 09 system (copyright 2009, Gaussian, Inc.),
 the Gaussian(R) 03 system (copyright 2003, Gaussian, Inc.),
 the Gaussian(R) 98 system (copyright 1998, Gaussian, Inc.),
 the Gaussian(R) 94 system (copyright 1995, Gaussian, Inc.),
 the Gaussian 92(TM) system (copyright 1992, Gaussian, Inc.),
 the Gaussian 90(TM) system (copyright 1990, Gaussian, Inc.),
 the Gaussian 88(TM) system (copyright 1988, Gaussian, Inc.),
 the Gaussian 86(TM) system (copyright 1986, Carnegie Mellon
 University), and the Gaussian 82(TM) system (copyright 1983,
 Carnegie Mellon University). Gaussian is a federally registered
 trademark of Gaussian, Inc.
  
 This software contains proprietary and confidential information,
 including trade secrets, belonging to Gaussian, Inc.
  
 This software is provided under written license and may be
 used, copied, transmitted, or stored only in accord with that
 written license.
  
 The following legend is applicable only to US Government
 contracts under FAR:
  
                    RESTRICTED RIGHTS LEGEND
  
 Use, reproduction and disclosure by the US Government is
 subject to restrictions as set forth in subparagraphs (a)
 and (c) of the Commercial Computer Software - Restricted
 Rights clause in FAR 52.227-19.
  
 Gaussian, Inc.
 340 Quinnipiac St., Bldg. 40, Wallingford CT 06492
  
  
 ---------------------------------------------------------------
 Warning -- This program may not be used in any manner that
 competes with the business of Gaussian, Inc. or will provide
 assistance to any competitor of Gaussian, Inc.  The licensee
 of this program is prohibited from giving any competitor of
 Gaussian, Inc. access to this program.  By using this program,
 the user acknowledges that Gaussian, Inc. is engaged in the
 business of creating and licensing software in the field of
 computational chemistry and represents and warrants to the
 licensee that it is not a competitor of Gaussian, Inc. and that
 it will not use this program in any manner prohibited above.
 ---------------------------------------------------------------
  

 Cite this work as:
 Gaussian 16, Revision B.01,
 M. J. Frisch, G. W. Trucks, H. B. Schlegel, G. E. Scuseria, 
 M. A. Robb, J. R. Cheeseman, G. Scalmani, V. Barone, 
 G. A. Petersson, H. Nakatsuji, X. Li, M. Caricato, A. V. Marenich, 
 J. Bloino, B. G. Janesko, R. Gomperts, B. Mennucci, H. P. Hratchian, 
 J. V. Ortiz, A. F. Izmaylov, J. L. Sonnenberg, D. Williams-Young, 
 F. Ding, F. Lipparini, F. Egidi, J. Goings, B. Peng, A. Petrone, 
 T. Henderson, D. Ranasinghe, V. G. Zakrzewski, J. Gao, N. Rega, 
 G. Zheng, W. Liang, M. Hada, M. Ehara, K. Toyota, R. Fukuda, 
 J. Hasegawa, M. Ishida, T. Nakajima, Y. Honda, O. Kitao, H. Nakai, 
 T. Vreven, K. Throssell, J. A. Montgomery, Jr., J. E. Peralta, 
 F. Ogliaro, M. J. Bearpark, J. J. Heyd, E. N. Brothers, K. N. Kudin, 
 V. N. Staroverov, T. A. Keith, R. Kobayashi, J. Normand, 
 K. Raghavachari, A. P. Rendell, J. C. Burant, S. S. Iyengar, 
 J. Tomasi, M. Cossi, J. M. Millam, M. Klene, C. Adamo, R. Cammi, 
 J. W. Ochterski, R. L. Martin, K. Morokuma, O. Farkas, 
 J. B. Foresman, and D. J. Fox, Gaussian, Inc., Wallingford CT, 2016.
 
 ******************************************
 Gaussian 16:  ES64L-G16RevB.01 20-Dec-2017
                30-May-2024 
 ******************************************
 %nprocshared=8
 Will use up to    8 processors via shared memory.
 ----------------------------------------------
 # nmr=giao hf/sto-3g pop=nbo geom=connectivity
 ----------------------------------------------
 1/38=1,57=2,172=1/1;
 2/12=2,17=6,18=5,40=1/2;
 3/6=3,11=9,25=1,30=1/1,2,3,8;
 4//1;
 5/5=2,38=5/2;
 8/6=1,10=90,11=11/1;
 10/13=100,45=16/2;
 6/7=2,8=2,9=2,10=2,28=1,40=1,64=1/1,7;
 99/9=1/99;
 ------------------
 pleiokomenine_C_1a
 ------------------
 Symbolic Z-matrix:
 Charge =  0 Multiplicity = 1
 C                     0.        0.        0. 
 C                     1.4022    0.        0. 
 C                     2.086     1.2337    0. 
 C                     1.3922    2.4538    0.0049 
 C                     0.0081    2.4409    0.0046 
 C                    -0.6699    1.2123    0.0275 
 N                    -0.8853    3.5459   -0.025 
 C                    -2.1485    1.4714    0.157 
 C                    -2.1555    2.9163   -0.4766 
 C                    -3.1615    0.5847   -0.5803 
 C                    -2.1383    2.7804   -2.0615 
 C                    -3.385     2.0451   -2.5709 
 C                    -4.17      1.4905   -1.3656 
 N                    -3.742    -0.2655    0.4627 
 C                    -4.9621   -0.9602    0.0811 
 C                    -5.9966   -0.0993   -0.6432 
 C                    -5.3734    0.6518   -1.82 
 C                    -2.4907    1.2872    1.6565 
 C                    -3.7913    0.4955    1.6995 
 C                    -4.6445    2.7504   -0.5636 
 C                    -3.459     3.6774   -0.177 
 C                    -3.6118    4.2566    1.2184 
 O                    -4.3758    3.8334    2.0773 
 O                    -2.838     5.3689    1.3652 
 C                    -2.8963    5.9548    2.6652 
 C                    -0.3898    4.7681   -0.6382 
 C                     2.1699   -1.3075   -0.0008 
 C                     1.7713   -2.2355    1.1283 
 C                     0.7884   -3.2117    0.9161 
 C                     2.3138   -2.0656    2.4179 
 C                     1.8572   -2.8258    3.5017 
 C                     0.8352   -3.7377    3.2974 
 C                     0.3356   -3.9468    2.0001 
 N                     0.1368   -4.5041    4.2731 
 C                    -0.726    -5.015     2.0592 
 C                    -1.1312   -4.8269    3.5726 
 C                    -1.9723   -4.8878    1.1848 
 C                    -2.134    -3.5957    3.6773 
 C                    -3.4274   -3.8699    2.8931 
 C                    -3.2446   -5.1483    2.0415 
 N                    -1.7827   -5.7967   -0.0376 
 C                    -2.7833   -6.9249   -0.0867 
 C                    -4.2252   -6.4619    0.0713 
 C                    -4.4442   -5.3682    1.1179 
 C                    -0.0965   -6.3331    1.5937 
 C                    -0.3793   -6.3465    0.1025 
 C                    -3.0786   -6.3085    3.0856 
 C                    -1.9473   -6.0139    4.1162 
 C                    -1.1736   -7.2621    4.5146 
 O                    -1.2203   -8.3332    3.9222 
 O                    -0.4892   -7.0606    5.6738 
 C                     0.2817   -8.182     6.1052 
 C                     0.1245   -3.9585    5.6247 
 O                    -1.8778   -5.0694   -1.1975 
 H                    -0.5678   -0.9257    0.0164 
 H                     3.1737    1.2524    0.0014 
 H                     1.9467    3.3849    0.0106 
 H                    -2.6548   -0.0794   -1.2936 
 H                    -2.0937    3.7706   -2.533 
 H                    -1.2445    2.2513   -2.4148 
 H                    -4.0095    2.7298   -3.1585 
 H                    -3.0844    1.2411   -3.2542 
 H                    -4.679    -1.7864   -0.5842 
 H                    -5.4216   -1.4364    0.9559 
 H                    -6.8045   -0.7414   -1.0135 
 H                    -6.4581    0.6036    0.0589 
 H                    -5.0547   -0.0784   -2.5753 
 H                    -6.1309    1.2846   -2.2976 
 H                    -1.7275    0.6799    2.1653 
 H                    -2.5381    2.2148    2.2259 
 H                    -3.8139   -0.1655    2.5727 
 H                    -4.6594    1.1529    1.7669 
 H                    -5.3351    3.3328   -1.1907 
 H                    -5.2435    2.4669    0.302 
 H                    -3.5243    4.555    -0.8386 
 H                    -2.5888    5.2324    3.428 
 H                    -2.2003    6.7979    2.688 
 H                    -3.9035    6.3309    2.8693 
 H                     0.0393    4.5867   -1.6301 
 H                     0.3748    5.2308   -0.005 
 H                    -1.1958    5.4996   -0.751 
 H                     2.0187   -1.8027   -0.9687 
 H                     3.249    -1.1184    0.0676 
 H                     0.3523   -3.3507   -0.0711 
 H                     3.0738   -1.3062    2.5895 
 H                     2.2772   -2.6566    4.4863 
 H                    -2.0371   -3.8792    0.751 
 H                    -1.6806   -2.6693    3.3029 
 H                    -2.3909   -3.3907    4.7245 
 H                    -4.2695   -3.9853    3.5872 
 H                    -3.664    -3.0019    2.2659 
 H                    -2.6447   -7.4123   -1.0599 
 H                    -2.4995   -7.6514    0.6767 
 H                    -4.5974   -6.0967   -0.8942 
 H                    -4.845    -7.3329    0.3169 
 H                    -4.6601   -4.4326    0.5838 
 H                    -5.3483   -5.5892    1.6986 
 H                     0.9748   -6.4255    1.8017 
 H                    -0.5863   -7.2054    2.0151 
 H                    -0.3396   -7.3441   -0.3452 
 H                     0.2879   -5.6801   -0.4531 
 H                    -2.928    -7.2699    2.5958 
 H                    -4.0196   -6.4276    3.6412 
 H                    -2.4503   -5.7101    5.0475 
 H                    -0.3738   -9.0223    6.3536 
 H                     0.8285   -7.8903    7.0062 
 H                     1.0079   -8.4686    5.3379 
 H                    -0.5749   -4.5098    6.2604 
 H                     1.115    -4.0526    6.0827 
 H                    -0.1725   -2.9036    5.6418 
 
 Stoichiometry    C45H56N4O5
 Framework group  C1[X(C45H56N4O5)]
 Deg. of freedom   324
 Full point group                 C1      NOp   1
 Largest Abelian subgroup         C1      NOp   1
 Largest concise Abelian subgroup C1      NOp   1
                         Standard orientation:                         
 ---------------------------------------------------------------------
 Center     Atomic      Atomic             Coordinates (Angstroms)
 Number     Number       Type             X           Y           Z
 ---------------------------------------------------------------------
      1          6           0        1.670714   -1.532074   -1.423106
      2          6           0        1.463393   -2.807098   -1.968539
      3          6           0        2.520207   -3.741008   -1.945009
      4          6           0        3.766412   -3.420441   -1.384441
      5          6           0        3.959043   -2.158513   -0.849343
      6          6           0        2.899017   -1.238733   -0.853532
      7          7           0        5.137487   -1.615931   -0.268879
      8          6           0        3.320439   -0.002577   -0.102211
      9          6           0        4.875176   -0.152439   -0.324852
     10          6           0        2.867876    1.386481   -0.573082
     11          6           0        5.239259    0.389942   -1.775348
     12          6           0        4.892289    1.877904   -1.916758
     13          6           0        4.112005    2.333800   -0.667811
     14          7           0        1.830520    1.784835    0.382364
     15          6           0        1.477874    3.196114    0.353985
     16          6           0        2.664685    4.158280    0.313175
     17          6           0        3.644435    3.790378   -0.801332
     18          6           0        2.730600   -0.140234    1.323507
     19          6           0        2.166424    1.228500    1.681935
     20          6           0        5.114602    2.181531    0.526893
     21          6           0        5.688834    0.741291    0.627699
     22          6           0        5.819956    0.272664    2.066156
     23          8           0        5.267905    0.790668    3.029179
     24          8           0        6.703748   -0.760871    2.156965
     25          6           0        6.856933   -1.285602    3.475248
     26          6           0        6.402546   -2.173113   -0.721073
     27          6           0        0.122952   -3.174104   -2.574711
     28          6           0       -1.041166   -2.949915   -1.631578
     29          6           0       -1.745910   -1.739071   -1.667373
     30          6           0       -1.364015   -3.912270   -0.653886
     31          6           0       -2.347941   -3.662829    0.310832
     32          6           0       -2.989017   -2.435310    0.312373
     33          6           0       -2.706901   -1.499502   -0.698065
     34          7           0       -3.909304   -1.928715    1.273390
     35          6           0       -3.570950   -0.283455   -0.483149
     36          6           0       -3.806378   -0.462611    1.066826
     37          6           0       -2.994652    1.106521   -0.747470
     38          6           0       -2.535186    0.103148    1.839103
     39          6           0       -2.356792    1.607707    1.579260
     40          6           0       -3.318158    2.046287    0.449495
     41          7           0       -3.494605    1.567943   -2.123496
     42          6           0       -4.390250    2.779450   -2.042779
     43          6           0       -3.791766    3.921231   -1.232494
     44          6           0       -3.059203    3.497871    0.041723
     45          6           0       -4.756011   -0.368581   -1.452031
     46          6           0       -4.261814    0.384641   -2.673611
     47          6           0       -4.757188    1.843914    1.042795
     48          6           0       -4.969296    0.400184    1.589986
     49          6           0       -6.379439   -0.119174    1.351025
     50          8           0       -7.193127    0.390006    0.590089
     51          8           0       -6.652951   -1.175471    2.164768
     52          6           0       -7.953958   -1.735266    1.986051
     53          6           0       -3.816834   -2.502127    2.610290
     54          8           0       -2.436259    1.853630   -2.949126
     55          1           0        0.880715   -0.786986   -1.404869
     56          1           0        2.376501   -4.735250   -2.362471
     57          1           0        4.556555   -4.162104   -1.376549
     58          1           0        2.392062    1.329426   -1.561473
     59          1           0        6.309054    0.254644   -1.980359
     60          1           0        4.720669   -0.172201   -2.561926
     61          1           0        5.810480    2.466671   -2.036622
     62          1           0        4.306287    2.033739   -2.831085
     63          1           0        0.868012    3.367531   -0.542709
     64          1           0        0.826099    3.445391    1.200290
     65          1           0        2.296940    5.177703    0.146868
     66          1           0        3.173725    4.168119    1.283111
     67          1           0        3.147474    3.934871   -1.769522
     68          1           0        4.499280    4.476870   -0.783647
     69          1           0        1.889118   -0.848668    1.337383
     70          1           0        3.430687   -0.519943    2.066881
     71          1           0        1.277102    1.127787    2.313499
     72          1           0        2.890777    1.829273    2.233930
     73          1           0        5.958866    2.869336    0.373545
     74          1           0        4.667184    2.511943    1.464486
     75          1           0        6.728469    0.797220    0.269661
     76          1           0        5.895599   -1.634467    3.865649
     77          1           0        7.538228   -2.139316    3.422680
     78          1           0        7.295209   -0.532340    4.137116
     79          1           0        6.478123   -2.189685   -1.814193
     80          1           0        6.526340   -3.194635   -0.345818
     81          1           0        7.243453   -1.588019   -0.336376
     82          1           0       -0.017679   -2.591544   -3.494365
     83          1           0        0.119560   -4.225774   -2.889153
     84          1           0       -1.504080   -0.981194   -2.409807
     85          1           0       -0.817138   -4.852166   -0.618432
     86          1           0       -2.558235   -4.412848    1.064300
     87          1           0       -1.903167    1.053589   -0.872024
     88          1           0       -1.615990   -0.419812    1.546604
     89          1           0       -2.631316   -0.061104    2.920042
     90          1           0       -2.557019    2.173302    2.498083
     91          1           0       -1.311566    1.810463    1.316247
     92          1           0       -4.564755    3.098272   -3.078051
     93          1           0       -5.352115    2.452975   -1.643586
     94          1           0       -3.092922    4.486271   -1.862130
     95          1           0       -4.594201    4.624038   -0.977010
     96          1           0       -1.982619    3.633943   -0.130539
     97          1           0       -3.314017    4.184026    0.858859
     98          1           0       -5.065986   -1.388061   -1.705136
     99          1           0       -5.633703    0.158262   -1.090807
    100          1           0       -5.064408    0.748853   -3.322000
    101          1           0       -3.561759   -0.207081   -3.271713
    102          1           0       -5.529076    2.112036    0.322258
    103          1           0       -4.903080    2.546134    1.875837
    104          1           0       -4.900170    0.473006    2.686590
    105          1           0       -8.723174   -1.008690    2.265121
    106          1           0       -8.041958   -2.603957    2.644468
    107          1           0       -8.091077   -2.069581    0.952761
    108          1           0       -4.429074   -1.936711    3.319285
    109          1           0       -4.194409   -3.530303    2.610930
    110          1           0       -2.788154   -2.504606    2.988610
 ---------------------------------------------------------------------
 Rotational constants (GHZ):           0.0952829           0.0331525           0.0302965
 Standard basis: STO-3G (5D, 7F)
 There are   326 symmetry adapted cartesian basis functions of A   symmetry.
 There are   326 symmetry adapted basis functions of A   symmetry.
   326 basis functions,   978 primitive gaussians,   326 cartesian basis functions
   197 alpha electrons      197 beta electrons
       nuclear repulsion energy      8155.6788616092 Hartrees.
 NAtoms=  110 NActive=  110 NUniq=  110 SFac= 1.00D+00 NAtFMM=   60 NAOKFM=T Big=T
 Integral buffers will be    131072 words long.
 Raffenetti 1 integral format.
 Two-electron integral symmetry is turned on.
 One-electron integrals computed using PRISM.
 NBasis=   326 RedAO= T EigKep=  1.72D-01  NBF=   326
 NBsUse=   326 1.00D-06 EigRej= -1.00D+00 NBFU=   326
 ExpMin= 1.69D-01 ExpMax= 1.31D+02 ExpMxC= 1.31D+02 IAcc=3 IRadAn=         5 AccDes= 0.00D+00
 Harris functional with IExCor=  205 and IRadAn=       5 diagonalized for initial guess.
 HarFok:  IExCor=  205 AccDes= 0.00D+00 IRadAn=         5 IDoV= 1 UseB2=F ITyADJ=14
 ICtDFT=  3500011 ScaDFX=  1.000000  1.000000  1.000000  1.000000
 FoFCou: FMM=F IPFlag=           0 FMFlag=      100000 FMFlg1=        2001
         NFxFlg=           0 DoJE=T BraDBF=F KetDBF=T FulRan=T
         wScrn=  0.000000 ICntrl=       500 IOpCl=  0 I1Cent=   200000004 NGrid=           0
         NMat0=    1 NMatS0=      1 NMatT0=    0 NMatD0=    1 NMtDS0=    0 NMtDT0=    0
 Petite list used in FoFCou.
 Requested convergence on RMS density matrix=1.00D-08 within 128 cycles.
 Requested convergence on MAX density matrix=1.00D-06.
 Requested convergence on             energy=1.00D-06.
 No special actions if energy rises.
 Integral accuracy reduced to 1.0D-05 until final iterations.
 Initial convergence to 1.0D-05 achieved.  Increase integral accuracy.
 SCF Done:  E(RHF) =  -2300.22002196     A.U. after   16 cycles
            NFock= 16  Conv=0.35D-08     -V/T= 2.0092
 Range of M.O.s used for correlation:     1   326
 NBasis=   326 NAE=   197 NBE=   197 NFC=     0 NFV=     0
 NROrb=    326 NOA=   197 NOB=   197 NVA=   129 NVB=   129
          Differentiating once with respect to magnetic field using GIAOs.
          Electric field/nuclear overlap derivatives assumed to be zero.
 FoFCou: FMM=F IPFlag=           0 FMFlag=      100000 FMFlg1=        2001
         NFxFlg=           0 DoJE=F BraDBF=F KetDBF=T FulRan=T
         wScrn=  0.000000 ICntrl=      6100 IOpCl=  0 I1Cent=           7 NGrid=         110
         NMat0=    1 NMatS0=      1 NMatT0=    0 NMatD0=    1 NMtDS0=    0 NMtDT0=    0
 Symmetry not used in FoFCou.
 FoFJK:  IHMeth= 1 ICntrl=    6127 DoSepK=F KAlg= 0 I1Cent=           0 FoldK=F
 IRaf=         1 NMat=       1 IRICut=       1 DoRegI=T DoRafI=F ISym2E= 0 IDoP0=0 IntGTp=1.
          There are     3 degrees of freedom in the 1st order CPHF.  IDoFFX=0 NUNeed=     3.
      3 vectors produced by pass  0 Test12= 8.47D-13 3.33D-08 XBig12= 1.69D+02 1.97D+00.
 AX will form     3 AO Fock derivatives at one time.
      3 vectors produced by pass  1 Test12= 8.47D-13 3.33D-08 XBig12= 6.64D-01 2.78D-01.
      3 vectors produced by pass  2 Test12= 8.47D-13 3.33D-08 XBig12= 1.88D-02 3.53D-02.
      3 vectors produced by pass  3 Test12= 8.47D-13 3.33D-08 XBig12= 5.97D-04 1.01D-02.
      3 vectors produced by pass  4 Test12= 8.47D-13 3.33D-08 XBig12= 2.10D-05 9.17D-04.
      3 vectors produced by pass  5 Test12= 8.47D-13 3.33D-08 XBig12= 3.32D-07 8.88D-05.
      3 vectors produced by pass  6 Test12= 8.47D-13 3.33D-08 XBig12= 7.47D-09 1.29D-05.
      3 vectors produced by pass  7 Test12= 8.47D-13 3.33D-08 XBig12= 1.55D-10 1.75D-06.
      3 vectors produced by pass  8 Test12= 8.47D-13 3.33D-08 XBig12= 4.28D-12 3.25D-07.
      1 vectors produced by pass  9 Test12= 8.47D-13 3.33D-08 XBig12= 4.72D-14 4.72D-08.
 InvSVY:  IOpt=1 It=  1 EMax= 7.11D-15
 Solved reduced A of dimension    28 with     3 vectors.
 Calculating GIAO nuclear magnetic shielding tensors.
 SCF GIAO Magnetic shielding tensor (ppm):
      1  C    Isotropic =   124.4796   Anisotropy =   153.5150
   XX=    86.1337   YX=    53.3232   ZX=   -34.6924
   XY=    53.9850   YY=    89.0809   ZY=   -34.6014
   XZ=   -27.7080   YZ=   -42.4493   ZZ=   198.2241
   Eigenvalues:    33.7900   112.8259   226.8229
      2  C    Isotropic =   120.2201   Anisotropy =   156.6111
   XX=    65.1560   YX=    -1.7810   ZX=   -59.2273
   XY=     0.7768   YY=   104.9304   ZY=   -43.8352
   XZ=   -48.7562   YZ=   -43.4083   ZZ=   190.5739
   Eigenvalues:    40.6251    95.4076   224.6275
      3  C    Isotropic =   119.4581   Anisotropy =   148.1399
   XX=   121.3132   YX=    -1.4134   ZX=   -36.9178
   XY=     0.0132   YY=    53.7183   ZY=   -61.5125
   XZ=   -36.9522   YZ=   -56.0014   ZZ=   183.3427
   Eigenvalues:    28.7849   111.3713   218.2180
      4  C    Isotropic =   133.7591   Anisotropy =   141.8401
   XX=    96.9349   YX=    50.1198   ZX=   -29.2064
   XY=    41.5884   YY=   100.7631   ZY=   -32.9980
   XZ=   -32.3164   YZ=   -33.9921   ZZ=   203.5792
   Eigenvalues:    52.9474   120.0106   228.3192
      5  C    Isotropic =   109.2700   Anisotropy =   126.2867
   XX=    59.5451   YX=     0.0797   ZX=   -44.4347
   XY=     7.3728   YY=   105.9888   ZY=   -30.6800
   XZ=   -41.8736   YZ=   -44.6263   ZZ=   162.2759
   Eigenvalues:    42.1885    92.1602   193.4611
      6  C    Isotropic =   117.7386   Anisotropy =   139.3505
   XX=   110.8713   YX=    13.8924   ZX=   -36.7442
   XY=    13.5871   YY=    68.5556   ZY=   -53.4005
   XZ=   -43.3076   YZ=   -43.5539   ZZ=   173.7888
   Eigenvalues:    49.5648    93.0119   210.6389
      7  N    Isotropic =   273.9275   Anisotropy =    81.9880
   XX=   290.9353   YX=    30.7013   ZX=     8.2094
   XY=    46.4389   YY=   281.9583   ZY=     5.6504
   XZ=    22.8459   YZ=     8.2112   ZZ=   248.8888
   Eigenvalues:   241.4534   251.7429   328.5862
      8  C    Isotropic =   196.2660   Anisotropy =    13.7264
   XX=   198.1949   YX=    -8.8192   ZX=     1.5324
   XY=    -8.2796   YY=   195.2828   ZY=    -4.2687
   XZ=    -1.8485   YZ=     3.1599   ZZ=   195.3204
   Eigenvalues:   188.0284   195.3528   205.4169
      9  C    Isotropic =   180.9210   Anisotropy =    45.2744
   XX=   183.2768   YX=   -13.1074   ZX=    10.9213
   XY=    -9.5640   YY=   206.4807   ZY=     9.8164
   XZ=     0.6941   YZ=    -3.9662   ZZ=   153.0055
   Eigenvalues:   151.4564   180.2027   211.1039
     10  C    Isotropic =   190.3890   Anisotropy =    30.3098
   XX=   190.8205   YX=    -8.8718   ZX=   -18.7510
   XY=    -6.8385   YY=   191.8852   ZY=     5.4059
   XZ=   -13.6325   YZ=     5.2580   ZZ=   188.4612
   Eigenvalues:   173.2751   187.2963   210.5955
     11  C    Isotropic =   213.7173   Anisotropy =    19.0500
   XX=   206.8900   YX=     0.8787   ZX=    -3.6437
   XY=    -1.3210   YY=   212.5812   ZY=    -9.1889
   XZ=    -7.9612   YZ=    -3.8535   ZZ=   221.6807
   Eigenvalues:   204.0605   210.6740   226.4173
     12  C    Isotropic =   212.8380   Anisotropy =    21.2206
   XX=   210.2967   YX=    -5.7722   ZX=    -9.0246
   XY=    -6.4598   YY=   210.5815   ZY=     6.1430
   XZ=    -8.4182   YZ=     3.9395   ZZ=   217.6359
   Eigenvalues:   203.3022   208.2268   226.9851
     13  C    Isotropic =   213.6076   Anisotropy =     7.8462
   XX=   210.4361   YX=     0.4152   ZX=     4.3760
   XY=     0.2141   YY=   215.7037   ZY=    -3.1584
   XZ=     0.3409   YZ=    -3.6241   ZZ=   214.6830
   Eigenvalues:   208.8838   213.1006   218.8384
     14  N    Isotropic =   303.3961   Anisotropy =    54.8872
   XX=   283.2908   YX=   -49.9379   ZX=   -22.2670
   XY=   -32.1139   YY=   300.0130   ZY=    -7.0165
   XZ=   -24.0556   YZ=   -14.2612   ZZ=   326.8845
   Eigenvalues:   242.5300   327.6708   339.9876
     15  C    Isotropic =   205.2198   Anisotropy =    32.4771
   XX=   205.9872   YX=    -6.9072   ZX=     0.9269
   XY=    -8.1033   YY=   224.0648   ZY=    -4.1990
   XZ=    -0.7227   YZ=     0.0295   ZZ=   185.6072
   Eigenvalues:   185.4897   203.2984   226.8711
     16  C    Isotropic =   224.1576   Anisotropy =     9.6778
   XX=   229.0665   YX=    -1.7315   ZX=    -4.9034
   XY=     0.8106   YY=   223.9165   ZY=     2.7526
   XZ=    -3.1724   YZ=    -1.3568   ZZ=   219.4897
   Eigenvalues:   217.9725   223.8908   230.6095
     17  C    Isotropic =   215.2871   Anisotropy =    19.3776
   XX=   213.3071   YX=    -5.5759   ZX=    -1.8150
   XY=   -10.6207   YY=   223.7801   ZY=    -0.8713
   XZ=    -0.8732   YZ=     0.7532   ZZ=   208.7742
   Eigenvalues:   207.6175   210.0384   228.2055
     18  C    Isotropic =   210.6281   Anisotropy =    35.9044
   XX=   199.0131   YX=    -1.8347   ZX=   -15.8921
   XY=    -4.1268   YY=   210.1055   ZY=     3.5731
   XZ=   -19.3347   YZ=    10.7217   ZZ=   222.7658
   Eigenvalues:   189.6186   207.7014   234.5644
     19  C    Isotropic =   200.1254   Anisotropy =    40.2890
   XX=   184.1920   YX=   -13.2792   ZX=     4.5145
   XY=   -13.6697   YY=   201.3928   ZY=   -15.8379
   XZ=    -2.0271   YZ=   -15.5998   ZZ=   214.7913
   Eigenvalues:   175.5420   197.8494   226.9847
     20  C    Isotropic =   212.2035   Anisotropy =    21.2918
   XX=   210.3050   YX=    -1.8596   ZX=    12.1266
   XY=    -3.9582   YY=   215.0517   ZY=    -5.7448
   XZ=    12.2012   YZ=    -5.9056   ZZ=   211.2539
   Eigenvalues:   198.3571   211.8555   226.3981
     21  C    Isotropic =   209.0094   Anisotropy =     9.9030
   XX=   204.4970   YX=     4.2208   ZX=     3.3201
   XY=     5.4722   YY=   209.3095   ZY=     1.9326
   XZ=     6.9601   YZ=    -5.9557   ZZ=   213.2217
   Eigenvalues:   199.3552   212.0616   215.6114
     22  C    Isotropic =    96.3057   Anisotropy =    98.3415
   XX=   115.8352   YX=    59.1532   ZX=   -56.8400
   XY=    54.8086   YY=    78.5190   ZY=    83.4693
   XZ=   -42.1805   YZ=    65.9411   ZZ=    94.5629
   Eigenvalues:   -28.1573   155.2077   161.8667
     23  O    Isotropic =  -134.0361   Anisotropy =   887.2903
   XX=    80.0307   YX=   428.0361   ZX=   145.9839
   XY=   432.8868   YY=   -53.2673   ZY=   -49.1951
   XZ=   167.2876   YZ=   -52.6701   ZZ=  -428.8716
   Eigenvalues:  -569.9280  -289.6710   457.4908
     24  O    Isotropic =   283.9672   Anisotropy =   140.0886
   XX=   364.9911   YX=   -18.9927   ZX=    56.5761
   XY=    -4.3233   YY=   366.0960   ZY=   -39.2080
   XZ=   -22.9723   YZ=    86.9262   ZZ=   120.8146
   Eigenvalues:   117.2283   357.3138   377.3596
     25  C    Isotropic =   197.4191   Anisotropy =    57.2999
   XX=   181.0280   YX=    -4.0869   ZX=     9.4851
   XY=    -3.5019   YY=   187.0139   ZY=   -21.2538
   XZ=     9.8197   YZ=   -20.7063   ZZ=   224.2154
   Eigenvalues:   177.4287   179.2095   235.6190
     26  C    Isotropic =   209.9078   Anisotropy =    42.0521
   XX=   227.7400   YX=   -15.9535   ZX=    -8.0128
   XY=   -17.3162   YY=   200.9161   ZY=     3.5247
   XZ=    -7.7167   YZ=     5.7667   ZZ=   201.0673
   Eigenvalues:   192.8585   198.9223   237.9425
     27  C    Isotropic =   206.3252   Anisotropy =    17.4792
   XX=   217.0930   YX=    -0.4233   ZX=    -5.5420
   XY=    -1.2433   YY=   199.2214   ZY=     6.0432
   XZ=    -0.7305   YZ=     5.4336   ZZ=   202.6613
   Eigenvalues:   194.8832   206.1145   217.9780
     28  C    Isotropic =   119.4198   Anisotropy =   161.5666
   XX=   121.5103   YX=    45.3690   ZX=    78.6871
   XY=    44.1164   YY=   114.9414   ZY=    31.4564
   XZ=    81.2635   YZ=    29.9960   ZZ=   121.8077
   Eigenvalues:    39.9545    91.1740   227.1309
     29  C    Isotropic =   122.7869   Anisotropy =   150.0904
   XX=   156.7376   YX=    19.1738   ZX=    61.8049
   XY=    11.9357   YY=    90.5427   ZY=    72.1700
   XZ=    51.9966   YZ=    65.8741   ZZ=   121.0804
   Eigenvalues:    29.9518   115.5618   222.8472
     30  C    Isotropic =   118.6281   Anisotropy =   156.7926
   XX=   134.4341   YX=    69.8663   ZX=    52.0557
   XY=    67.3244   YY=    69.4972   ZY=    30.6246
   XZ=    41.4963   YZ=    33.9159   ZZ=   151.9528
   Eigenvalues:    26.0259   106.7018   223.1565
     31  C    Isotropic =   133.5299   Anisotropy =   144.5379
   XX=   172.7104   YX=    27.3348   ZX=    50.7913
   XY=    24.6509   YY=   106.6282   ZY=    53.2098
   XZ=    51.3252   YZ=    68.0099   ZZ=   121.2510
   Eigenvalues:    50.7503   119.9508   229.8885
     32  C    Isotropic =   107.8627   Anisotropy =   129.2675
   XX=   129.0525   YX=    43.8830   ZX=    59.5295
   XY=    32.2072   YY=   107.0654   ZY=    17.8126
   XZ=    67.6840   YZ=    14.8116   ZZ=    87.4701
   Eigenvalues:    39.8323    89.7147   194.0410
     33  C    Isotropic =   120.3960   Anisotropy =   138.0643
   XX=   148.1299   YX=    37.2994   ZX=    53.1114
   XY=    55.6752   YY=    73.5726   ZY=    24.7900
   XZ=    46.5373   YZ=    23.4406   ZZ=   139.4855
   Eigenvalues:    51.2624    97.4867   212.4389
     34  N    Isotropic =   273.0054   Anisotropy =    80.0930
   XX=   262.3466   YX=   -12.4715   ZX=   -35.0120
   XY=   -17.1245   YY=   279.4658   ZY=    40.7738
   XZ=   -18.1670   YZ=    28.4403   ZZ=   277.2039
   Eigenvalues:   237.8329   254.7826   326.4007
     35  C    Isotropic =   197.4032   Anisotropy =    14.0131
   XX=   194.1934   YX=    -0.0381   ZX=     2.5152
   XY=     6.7132   YY=   194.9996   ZY=    -5.5591
   XZ=    -6.3431   YZ=    -5.6409   ZZ=   203.0165
   Eigenvalues:   190.6106   194.8536   206.7452
     36  C    Isotropic =   180.4584   Anisotropy =    44.4046
   XX=   159.5770   YX=     7.4112   ZX=    -7.1306
   XY=    -8.8027   YY=   205.6502   ZY=   -12.2928
   XZ=   -18.3801   YZ=   -11.3045   ZZ=   176.1479
   Eigenvalues:   151.8817   179.4319   210.0615
     37  C    Isotropic =   175.3283   Anisotropy =    55.7674
   XX=   172.1615   YX=     0.8292   ZX=    18.4761
   XY=    -2.4181   YY=   157.6273   ZY=   -22.1337
   XZ=    16.9429   YZ=   -20.4524   ZZ=   196.1960
   Eigenvalues:   146.2324   167.2459   212.5066
     38  C    Isotropic =   213.4244   Anisotropy =    20.4458
   XX=   219.0942   YX=     3.9771   ZX=    10.6803
   XY=    10.0370   YY=   211.9497   ZY=     1.1509
   XZ=     5.8581   YZ=     2.4631   ZZ=   209.2293
   Eigenvalues:   203.8962   209.3222   227.0549
     39  C    Isotropic =   212.0112   Anisotropy =    21.3249
   XX=   214.3349   YX=    -1.3101   ZX=     9.5348
   XY=    -3.2363   YY=   208.2662   ZY=    -8.9218
   XZ=     9.4636   YZ=    -6.5552   ZZ=   213.4325
   Eigenvalues:   201.1049   208.7009   226.2278
     40  C    Isotropic =   210.9485   Anisotropy =     8.5278
   XX=   210.7595   YX=     2.3565   ZX=     0.7008
   XY=     2.2259   YY=   215.5785   ZY=     0.4049
   XZ=     0.1388   YZ=     1.8218   ZZ=   206.5075
   Eigenvalues:   206.3676   209.8442   216.6337
     41  N    Isotropic =   226.8710   Anisotropy =    55.9099
   XX=   234.1585   YX=    29.4503   ZX=   -12.3905
   XY=    29.1191   YY=   201.5371   ZY=   -13.5454
   XZ=    -8.0266   YZ=   -12.8034   ZZ=   244.9176
   Eigenvalues:   183.6641   232.8047   264.1443
     42  C    Isotropic =   196.6300   Anisotropy =    47.1431
   XX=   193.9264   YX=   -22.0614   ZX=     6.0145
   XY=   -25.9289   YY=   211.0757   ZY=     7.3311
   XZ=     3.6377   YZ=     3.8644   ZZ=   184.8880
   Eigenvalues:   172.7609   189.0704   228.0588
     43  C    Isotropic =   221.6175   Anisotropy =    11.5787
   XX=   215.6513   YX=     0.5648   ZX=    10.0524
   XY=     0.5032   YY=   227.1030   ZY=    -2.1455
   XZ=     9.3542   YZ=    -0.3932   ZZ=   222.0981
   Eigenvalues:   208.5753   226.9405   229.3366
     44  C    Isotropic =   217.7071   Anisotropy =    19.9371
   XX=   212.8441   YX=     0.2429   ZX=     1.9291
   XY=     4.3339   YY=   226.6372   ZY=   -10.2951
   XZ=     1.5021   YZ=    -6.8751   ZZ=   213.6399
   Eigenvalues:   208.0024   214.1203   230.9985
     45  C    Isotropic =   214.1158   Anisotropy =    28.8618
   XX=   213.5683   YX=    14.7041   ZX=    13.7034
   XY=     7.2307   YY=   206.2737   ZY=    -3.3783
   XZ=    15.5420   YZ=   -10.8577   ZZ=   222.5054
   Eigenvalues:   191.3348   217.6556   233.3570
     46  C    Isotropic =   186.7824   Anisotropy =    61.9498
   XX=   179.5261   YX=    30.9249   ZX=     2.9708
   XY=    25.7915   YY=   201.9511   ZY=    21.8221
   XZ=    12.6836   YZ=    11.8767   ZZ=   178.8700
   Eigenvalues:   159.5926   172.6723   228.0823
     47  C    Isotropic =   212.0138   Anisotropy =    24.4531
   XX=   220.1599   YX=     6.2748   ZX=    -9.8225
   XY=     6.6166   YY=   214.3007   ZY=    -4.0692
   XZ=   -10.2017   YZ=    -2.8088   ZZ=   201.5808
   Eigenvalues:   197.1907   210.5349   228.3158
     48  C    Isotropic =   208.3232   Anisotropy =    12.3302
   XX=   216.3512   YX=     4.6362   ZX=    -3.1812
   XY=    -2.9182   YY=   208.2662   ZY=     4.2873
   XZ=    -0.1786   YZ=     5.5585   ZZ=   200.3523
   Eigenvalues:   197.8014   210.6249   216.5434
     49  C    Isotropic =    95.9664   Anisotropy =    98.2101
   XX=    77.3856   YX=   -79.4760   ZX=    28.5191
   XY=   -94.6733   YY=    71.1794   ZY=    32.0731
   XZ=    42.2686   YZ=    39.9788   ZZ=   139.3343
   Eigenvalues:   -28.0814   154.5408   161.4398
     50  O    Isotropic =  -131.2511   Anisotropy =   881.2444
   XX=  -317.3942   YX=   -56.6089   ZX=  -283.2636
   XY=   -70.6755   YY=   -67.0687   ZY=   414.6979
   XZ=  -259.8649   YZ=   416.5178   ZZ=    -9.2903
   Eigenvalues:  -560.9587  -289.0398   456.2452
     51  O    Isotropic =   282.9524   Anisotropy =   138.4901
   XX=   143.7924   YX=   -86.8620   ZX=   -34.4090
   XY=    31.8562   YY=   363.8587   ZY=     5.4182
   XZ=  -110.9304   YZ=   -41.8486   ZZ=   341.2060
   Eigenvalues:   115.8414   357.7367   375.2791
     52  C    Isotropic =   197.2058   Anisotropy =    58.3497
   XX=   225.4369   YX=    22.2368   ZX=     2.2147
   XY=    22.6797   YY=   188.0835   ZY=     1.9457
   XZ=     2.3938   YZ=     1.4532   ZZ=   178.0970
   Eigenvalues:   177.1599   178.3519   236.1056
     53  C    Isotropic =   209.4131   Anisotropy =    41.2098
   XX=   199.6469   YX=    -0.9569   ZX=    -0.7555
   XY=     1.7337   YY=   200.6332   ZY=   -18.4164
   XZ=    -0.8424   YZ=   -17.5099   ZZ=   227.9593
   Eigenvalues:   191.7274   199.6257   236.8863
     54  O    Isotropic =    27.5484   Anisotropy =   454.9578
   XX=   145.1171   YX=    64.1598   ZX=  -208.1308
   XY=    61.2150   YY=  -126.7223   ZY=   -69.0979
   XZ=  -199.8487   YZ=   -65.7989   ZZ=    64.2504
   Eigenvalues:  -148.1819  -100.0264   330.8536
     55  H    Isotropic =    26.0030   Anisotropy =    16.4363
   XX=    32.7958   YX=     4.7894   ZX=     2.0757
   XY=     4.8063   YY=    26.3406   ZY=     4.0089
   XZ=     5.0056   YZ=     5.3587   ZZ=    18.8726
   Eigenvalues:    16.5252    24.5233    36.9605
     56  H    Isotropic =    25.6969   Anisotropy =     6.6034
   XX=    29.1013   YX=    -2.1725   ZX=     1.0953
   XY=    -1.5441   YY=    26.6017   ZY=     2.0017
   XZ=     1.5683   YZ=     1.9469   ZZ=    21.3877
   Eigenvalues:    20.3211    26.6705    30.0992
     57  H    Isotropic =    26.5732   Anisotropy =     7.8796
   XX=    27.9546   YX=     0.5899   ZX=     2.1315
   XY=     0.3075   YY=    30.3397   ZY=     3.2661
   XZ=     2.5219   YZ=     3.3820   ZZ=    21.4255
   Eigenvalues:    19.7915    28.1019    31.8263
     58  H    Isotropic =    31.3596   Anisotropy =     8.8707
   XX=    32.8825   YX=     1.0454   ZX=     3.1791
   XY=     0.5827   YY=    28.5096   ZY=     2.2390
   XZ=     5.2679   YZ=     0.4450   ZZ=    32.6866
   Eigenvalues:    27.9868    28.8186    37.2734
     59  H    Isotropic =    32.1774   Anisotropy =    14.1365
   XX=    37.7252   YX=    -3.1778   ZX=    -6.0436
   XY=    -2.5359   YY=    30.2355   ZY=    -0.6059
   XZ=    -7.2741   YZ=    -1.5288   ZZ=    28.5714
   Eigenvalues:    24.1784    30.7520    41.6017
     60  H    Isotropic =    32.8705   Anisotropy =     8.4568
   XX=    28.6274   YX=     2.5061   ZX=     1.4592
   XY=     2.1682   YY=    33.1220   ZY=     4.0350
   XZ=    -1.0247   YZ=     1.4956   ZZ=    36.8622
   Eigenvalues:    27.5381    32.5652    38.5084
     61  H    Isotropic =    32.3483   Anisotropy =    15.5380
   XX=    35.8222   YX=     5.1942   ZX=    -5.9419
   XY=     4.9237   YY=    32.3116   ZY=    -3.2144
   XZ=    -5.8915   YZ=    -3.3446   ZZ=    28.9111
   Eigenvalues:    25.4894    28.8485    42.7070
     62  H    Isotropic =    32.4818   Anisotropy =    12.9593
   XX=    28.4163   YX=    -1.4406   ZX=     2.2025
   XY=    -1.6695   YY=    29.3119   ZY=    -2.6460
   XZ=     2.0083   YZ=    -3.8414   ZZ=    39.7173
   Eigenvalues:    27.2367    29.0875    41.1214
     63  H    Isotropic =    31.5521   Anisotropy =    15.2506
   XX=    38.1706   YX=    -1.5114   ZX=     5.9882
   XY=    -2.7928   YY=    28.7763   ZY=    -3.3171
   XZ=     6.1411   YZ=    -2.3533   ZZ=    27.7095
   Eigenvalues:    24.2191    28.7181    41.7192
     64  H    Isotropic =    31.8949   Anisotropy =    14.1524
   XX=    37.1898   YX=    -1.9142   ZX=    -5.9292
   XY=    -2.8227   YY=    30.0951   ZY=     2.6371
   XZ=    -6.2737   YZ=     2.8568   ZZ=    28.3998
   Eigenvalues:    24.8612    29.4937    41.3298
     65  H    Isotropic =    32.5980   Anisotropy =    16.9386
   XX=    29.8510   YX=    -4.0146   ZX=    -1.0317
   XY=    -3.7639   YY=    42.8128   ZY=    -0.1544
   XZ=    -0.8285   YZ=    -0.4575   ZZ=    25.1302
   Eigenvalues:    24.8841    29.0195    43.8904
     66  H    Isotropic =    32.5629   Anisotropy =    10.7241
   XX=    30.3780   YX=     0.7678   ZX=     3.7173
   XY=     0.4420   YY=    31.5260   ZY=     4.0725
   XZ=     3.7014   YZ=     4.3887   ZZ=    35.7846
   Eigenvalues:    27.6458    30.3305    39.7123
     67  H    Isotropic =    32.5096   Anisotropy =    12.3963
   XX=    29.3690   YX=    -2.6221   ZX=     2.2528
   XY=    -2.8245   YY=    31.5721   ZY=    -5.0479
   XZ=     2.2461   YZ=    -5.1921   ZZ=    36.5876
   Eigenvalues:    27.3030    29.4519    40.7738
     68  H    Isotropic =    32.4732   Anisotropy =    15.2167
   XX=    34.0277   YX=     6.2090   ZX=    -2.3571
   XY=     5.7317   YY=    37.8807   ZY=    -1.8203
   XZ=    -1.9030   YZ=    -1.4587   ZZ=    25.5110
   Eigenvalues:    25.0024    29.7995    42.6176
     69  H    Isotropic =    32.9278   Anisotropy =    12.8313
   XX=    36.1965   YX=     5.2215   ZX=    -3.3132
   XY=     7.2204   YY=    33.3869   ZY=    -0.9138
   XZ=    -2.7672   YZ=     2.3631   ZZ=    29.2000
   Eigenvalues:    26.2046    31.0968    41.4820
     70  H    Isotropic =    33.1384   Anisotropy =    11.4171
   XX=    35.0590   YX=    -3.0276   ZX=     3.4779
   XY=    -1.5881   YY=    28.5731   ZY=    -4.4223
   XZ=     3.8868   YZ=    -3.3698   ZZ=    35.7832
   Eigenvalues:    26.8073    31.8581    40.7498
     71  H    Isotropic =    32.1574   Anisotropy =    14.5927
   XX=    36.6596   YX=    -0.3475   ZX=    -5.9550
   XY=     0.7020   YY=    26.5478   ZY=    -0.8516
   XZ=    -7.4452   YZ=    -0.0848   ZZ=    33.2646
   Eigenvalues:    26.4924    28.0939    41.8859
     72  H    Isotropic =    32.0327   Anisotropy =     9.3506
   XX=    31.7159   YX=     1.1175   ZX=     2.8470
   XY=     1.9084   YY=    29.3306   ZY=     2.8307
   XZ=     2.9748   YZ=     3.9478   ZZ=    35.0516
   Eigenvalues:    27.7483    30.0833    38.2664
     73  H    Isotropic =    32.2249   Anisotropy =    15.1264
   XX=    36.4603   YX=     6.7914   ZX=     1.7139
   XY=     6.0171   YY=    35.0364   ZY=    -0.2865
   XZ=     2.1195   YZ=     0.2338   ZZ=    25.1779
   Eigenvalues:    24.6984    29.6670    42.3091
     74  H    Isotropic =    31.4139   Anisotropy =     8.8215
   XX=    29.7237   YX=    -1.5196   ZX=     0.0575
   XY=    -2.3859   YY=    29.3680   ZY=     3.4057
   XZ=     0.0244   YZ=     4.5956   ZZ=    35.1499
   Eigenvalues:    26.3804    30.5664    37.2949
     75  H    Isotropic =    31.2140   Anisotropy =    13.0833
   XX=    39.9174   YX=    -0.9072   ZX=    -0.6958
   XY=     0.2123   YY=    27.7174   ZY=    -1.5167
   XZ=    -0.0577   YZ=    -0.3067   ZZ=    26.0072
   Eigenvalues:    25.5960    28.1098    39.9362
     76  H    Isotropic =    30.6976   Anisotropy =     7.4628
   XX=    31.7323   YX=     2.1396   ZX=    -1.6961
   XY=     1.2934   YY=    28.2863   ZY=    -4.0449
   XZ=    -0.8769   YZ=    -4.0215   ZZ=    32.0742
   Eigenvalues:    25.6227    30.7973    35.6728
     77  H    Isotropic =    30.5638   Anisotropy =    12.2501
   XX=    30.6428   YX=    -5.8874   ZX=     2.3212
   XY=    -6.0653   YY=    32.3847   ZY=    -1.8909
   XZ=     3.1999   YZ=    -2.4215   ZZ=    28.6639
   Eigenvalues:    25.2844    27.6765    38.7305
     78  H    Isotropic =    30.5998   Anisotropy =    11.7368
   XX=    29.4182   YX=     0.8114   ZX=     5.2109
   XY=     1.5352   YY=    28.4647   ZY=     2.6129
   XZ=     5.8996   YZ=     2.4523   ZZ=    33.9164
   Eigenvalues:    25.5870    27.7880    38.4243
     79  H    Isotropic =    31.8831   Anisotropy =    11.9493
   XX=    31.4806   YX=    -3.3774   ZX=    -3.8787
   XY=    -2.6840   YY=    29.3759   ZY=     3.0312
   XZ=    -5.6927   YZ=     2.8300   ZZ=    34.7928
   Eigenvalues:    27.1665    28.6335    39.8493
     80  H    Isotropic =    30.7348   Anisotropy =    14.6118
   XX=    29.9740   YX=    -5.4951   ZX=     2.1059
   XY=    -5.2709   YY=    37.3943   ZY=    -1.2774
   XZ=     1.4894   YZ=    -1.3270   ZZ=    24.8361
   Eigenvalues:    24.2525    27.4759    40.4760
     81  H    Isotropic =    30.9118   Anisotropy =    11.0493
   XX=    37.8631   YX=    -0.5884   ZX=     2.8035
   XY=    -0.7928   YY=    28.8498   ZY=     2.7598
   XZ=     1.6852   YZ=     2.7654   ZZ=    26.0225
   Eigenvalues:    23.9592    30.4982    38.2780
     82  H    Isotropic =    29.9411   Anisotropy =     8.2822
   XX=    27.3304   YX=    -1.9037   ZX=     0.2448
   XY=    -3.1571   YY=    28.0896   ZY=    -1.8114
   XZ=     2.3465   YZ=    -2.1223   ZZ=    34.4032
   Eigenvalues:    25.1402    29.2205    35.4626
     83  H    Isotropic =    29.8257   Anisotropy =    12.7230
   XX=    27.8712   YX=    -0.3928   ZX=    -0.2038
   XY=    -1.5611   YY=    35.7101   ZY=     5.3313
   XZ=    -1.9092   YZ=     5.5774   ZZ=    25.8958
   Eigenvalues:    23.3922    27.7772    38.3077
     84  H    Isotropic =    24.9429   Anisotropy =    12.9712
   XX=    28.2560   YX=    -5.8646   ZX=    -2.7869
   XY=    -5.8145   YY=    24.6492   ZY=     2.6321
   XZ=    -2.5645   YZ=     1.7692   ZZ=    21.9235
   Eigenvalues:    20.2904    20.9479    33.5904
     85  H    Isotropic =    25.8885   Anisotropy =     6.9361
   XX=    25.7354   YX=     0.5652   ZX=    -3.8094
   XY=     0.3623   YY=    27.5426   ZY=    -1.3771
   XZ=    -5.2913   YZ=    -2.3169   ZZ=    24.3875
   Eigenvalues:    20.2898    26.8630    30.5126
     86  H    Isotropic =    26.6267   Anisotropy =     7.7210
   XX=    25.3123   YX=    -2.7613   ZX=    -4.0602
   XY=    -2.5974   YY=    30.3420   ZY=    -0.8281
   XZ=    -4.3832   YZ=    -0.1930   ZZ=    24.2257
   Eigenvalues:    20.0481    28.0579    31.7740
     87  H    Isotropic =    30.1312   Anisotropy =    10.7792
   XX=    37.1368   YX=     0.7176   ZX=    -2.3690
   XY=    -1.6314   YY=    27.1327   ZY=     0.1501
   XZ=    -0.2299   YZ=     1.4216   ZZ=    26.1240
   Eigenvalues:    25.6173    27.4589    37.3173
     88  H    Isotropic =    32.8348   Anisotropy =    11.0491
   XX=    39.6680   YX=    -1.1313   ZX=     2.4041
   XY=    -3.0666   YY=    31.8975   ZY=     1.2580
   XZ=    -1.0242   YZ=     2.8415   ZZ=    26.9390
   Eigenvalues:    26.0607    32.2428    40.2009
     89  H    Isotropic =    32.1698   Anisotropy =    12.0863
   XX=    27.3278   YX=     2.4743   ZX=     3.1003
   XY=     1.5811   YY=    29.8141   ZY=    -2.5165
   XZ=     1.3642   YZ=    -2.5576   ZZ=    39.3677
   Eigenvalues:    25.4504    30.8317    40.2274
     90  H    Isotropic =    32.1673   Anisotropy =    13.3132
   XX=    28.1006   YX=     1.0322   ZX=     1.7495
   XY=     1.0085   YY=    31.2154   ZY=     5.4880
   XZ=     1.4808   YZ=     6.1951   ZZ=    37.1860
   Eigenvalues:    27.6366    27.8226    41.0428
     91  H    Isotropic =    31.9369   Anisotropy =    19.7928
   XX=    44.1916   YX=     4.6581   ZX=     0.7389
   XY=     3.4784   YY=    27.4511   ZY=    -0.9915
   XZ=     0.0902   YZ=     0.0430   ZZ=    24.1679
   Eigenvalues:    24.0392    26.6393    45.1321
     92  H    Isotropic =    30.7962   Anisotropy =    14.6578
   XX=    26.1179   YX=    -2.8378   ZX=     5.8090
   XY=    -1.9259   YY=    30.3521   ZY=    -4.7221
   XZ=     4.4631   YZ=    -4.1186   ZZ=    35.9185
   Eigenvalues:    23.8765    27.9440    40.5680
     93  H    Isotropic =    31.7088   Anisotropy =     8.2389
   XX=    36.8989   YX=    -1.0764   ZX=     0.1808
   XY=    -1.7405   YY=    30.3224   ZY=    -1.1858
   XZ=    -0.1019   YZ=    -1.9086   ZZ=    27.9052
   Eigenvalues:    27.1143    30.8107    37.2015
     94  H    Isotropic =    31.1644   Anisotropy =    15.2647
   XX=    29.1897   YX=     4.9595   ZX=    -2.3075
   XY=     5.2661   YY=    33.9364   ZY=    -6.6404
   XZ=    -2.2159   YZ=    -6.3473   ZZ=    30.3671
   Eigenvalues:    24.7103    27.4420    41.3409
     95  H    Isotropic =    32.1488   Anisotropy =    16.5251
   XX=    32.0725   YX=    -8.4736   ZX=     0.4848
   XY=    -7.5318   YY=    37.3838   ZY=     0.6825
   XZ=     0.6349   YZ=     0.8678   ZZ=    26.9902
   Eigenvalues:    25.6699    27.6110    43.1656
     96  H    Isotropic =    31.7583   Anisotropy =    15.7883
   XX=    40.7635   YX=     4.5537   ZX=     0.8480
   XY=     4.1515   YY=    29.8219   ZY=    -2.6247
   XZ=     0.7531   YZ=    -2.1043   ZZ=    24.6893
   Eigenvalues:    23.4143    29.5766    42.2838
     97  H    Isotropic =    32.2450   Anisotropy =    13.7982
   XX=    26.5404   YX=    -1.4372   ZX=    -0.3173
   XY=    -0.9481   YY=    37.4272   ZY=     5.4485
   XZ=    -0.1479   YZ=     6.1774   ZZ=    32.7673
   Eigenvalues:    26.3654    28.9257    41.4438
     98  H    Isotropic =    32.7833   Anisotropy =    12.7307
   XX=    32.4840   YX=     4.3481   ZX=     3.1711
   XY=     5.9650   YY=    36.1264   ZY=     3.2127
   XZ=     4.1210   YZ=     1.7197   ZZ=    29.7394
   Eigenvalues:    27.0537    30.0257    41.2704
     99  H    Isotropic =    32.5210   Anisotropy =    11.0025
   XX=    38.8449   YX=    -2.0256   ZX=    -1.8345
   XY=    -2.6586   YY=    26.9215   ZY=     1.4977
   XZ=    -2.5638   YZ=    -1.7647   ZZ=    31.7967
   Eigenvalues:    26.4198    31.2873    39.8561
    100  H    Isotropic =    31.1257   Anisotropy =    14.0163
   XX=    30.7047   YX=    -0.8128   ZX=     8.0022
   XY=     0.7225   YY=    27.8617   ZY=     0.4296
   XZ=     6.8265   YZ=    -1.5859   ZZ=    34.8108
   Eigenvalues:    25.0294    27.8779    40.4700
    101  H    Isotropic =    30.2768   Anisotropy =    11.0159
   XX=    27.3397   YX=    -3.4118   ZX=    -1.0698
   XY=    -3.8153   YY=    28.8917   ZY=     5.5227
   XZ=    -2.5446   YZ=     2.1891   ZZ=    34.5990
   Eigenvalues:    24.2908    28.9188    37.6207
    102  H    Isotropic =    31.4706   Anisotropy =    10.3155
   XX=    36.1869   YX=    -3.3449   ZX=     2.2114
   XY=    -2.3442   YY=    28.7680   ZY=    -3.7523
   XZ=     1.9343   YZ=    -3.4819   ZZ=    29.4568
   Eigenvalues:    25.4237    30.6404    38.3476
    103  H    Isotropic =    32.0334   Anisotropy =    14.4033
   XX=    28.6540   YX=    -2.8031   ZX=    -5.1726
   XY=    -2.0270   YY=    34.7181   ZY=     5.3547
   XZ=    -4.8267   YZ=     6.2254   ZZ=    32.7281
   Eigenvalues:    25.0512    29.4135    41.6356
    104  H    Isotropic =    31.1615   Anisotropy =    11.8087
   XX=    27.9928   YX=     0.6456   ZX=    -3.6026
   XY=     1.5213   YY=    27.5257   ZY=     0.5170
   XZ=    -3.2315   YZ=    -0.5340   ZZ=    37.9661
   Eigenvalues:    26.1530    28.2975    39.0340
    105  H    Isotropic =    30.5384   Anisotropy =    11.8806
   XX=    36.7383   YX=    -2.2757   ZX=    -3.8344
   XY=    -2.5351   YY=    28.3239   ZY=     0.7777
   XZ=    -3.3176   YZ=     0.2318   ZZ=    26.5531
   Eigenvalues:    25.3987    27.7577    38.4588
    106  H    Isotropic =    30.4914   Anisotropy =    12.0021
   XX=    30.2742   YX=     3.7729   ZX=    -2.7693
   XY=     3.3860   YY=    32.7496   ZY=    -5.3916
   XZ=    -2.1076   YZ=    -4.9733   ZZ=    28.4506
   Eigenvalues:    24.9891    27.9924    38.4929
    107  H    Isotropic =    30.5890   Anisotropy =     8.2278
   XX=    31.5294   YX=     3.3707   ZX=     1.4866
   XY=     3.7392   YY=    28.4487   ZY=     2.3138
   XZ=     2.0612   YZ=     3.2556   ZZ=    31.7888
   Eigenvalues:    25.7427    29.9501    36.0742
    108  H    Isotropic =    30.9031   Anisotropy =    10.7809
   XX=    29.2639   YX=    -2.2153   ZX=    -4.5687
   XY=    -2.0307   YY=    28.5676   ZY=    -1.8014
   XZ=    -6.0566   YZ=    -1.4895   ZZ=    34.8776
   Eigenvalues:    24.3657    30.2532    38.0903
    109  H    Isotropic =    30.7506   Anisotropy =    14.7168
   XX=    27.1767   YX=     2.9195   ZX=    -2.4677
   XY=     2.9366   YY=    37.5514   ZY=    -4.7173
   XZ=    -3.5465   YZ=    -4.7925   ZZ=    27.5236
   Eigenvalues:    24.1870    27.5030    40.5618
    110  H    Isotropic =    31.9731   Anisotropy =    10.3472
   XX=    33.1869   YX=    -1.3255   ZX=     5.2956
   XY=    -1.5736   YY=    29.2434   ZY=    -3.4135
   XZ=     2.8828   YZ=    -4.0081   ZZ=    33.4888
   Eigenvalues:    26.9381    30.1099    38.8712
 End of Minotr F.D. properties file   721 does not exist.
 End of Minotr F.D. properties file   722 does not exist.
 End of Minotr F.D. properties file   788 does not exist.
 Hyperfine terms turned off by default for NAtoms > 100.

 **********************************************************************

            Population analysis using the SCF Density.

 **********************************************************************

 Orbital symmetries:
       Occupied  (A) (A) (A) (A) (A) (A) (A) (A) (A) (A) (A) (A)
                 (A) (A) (A) (A) (A) (A) (A) (A) (A) (A) (A) (A)
                 (A) (A) (A) (A) (A) (A) (A) (A) (A) (A) (A) (A)
                 (A) (A) (A) (A) (A) (A) (A) (A) (A) (A) (A) (A)
                 (A) (A) (A) (A) (A) (A) (A) (A) (A) (A) (A) (A)
                 (A) (A) (A) (A) (A) (A) (A) (A) (A) (A) (A) (A)
                 (A) (A) (A) (A) (A) (A) (A) (A) (A) (A) (A) (A)
                 (A) (A) (A) (A) (A) (A) (A) (A) (A) (A) (A) (A)
                 (A) (A) (A) (A) (A) (A) (A) (A) (A) (A) (A) (A)
                 (A) (A) (A) (A) (A) (A) (A) (A) (A) (A) (A) (A)
                 (A) (A) (A) (A) (A) (A) (A) (A) (A) (A) (A) (A)
                 (A) (A) (A) (A) (A) (A) (A) (A) (A) (A) (A) (A)
                 (A) (A) (A) (A) (A) (A) (A) (A) (A) (A) (A) (A)
                 (A) (A) (A) (A) (A) (A) (A) (A) (A) (A) (A) (A)
                 (A) (A) (A) (A) (A) (A) (A) (A) (A) (A) (A) (A)
                 (A) (A) (A) (A) (A) (A) (A) (A) (A) (A) (A) (A)
                 (A) (A) (A) (A) (A)
       Virtual   (A) (A) (A) (A) (A) (A) (A) (A) (A) (A) (A) (A)
                 (A) (A) (A) (A) (A) (A) (A) (A) (A) (A) (A) (A)
                 (A) (A) (A) (A) (A) (A) (A) (A) (A) (A) (A) (A)
                 (A) (A) (A) (A) (A) (A) (A) (A) (A) (A) (A) (A)
                 (A) (A) (A) (A) (A) (A) (A) (A) (A) (A) (A) (A)
                 (A) (A) (A) (A) (A) (A) (A) (A) (A) (A) (A) (A)
                 (A) (A) (A) (A) (A) (A) (A) (A) (A) (A) (A) (A)
                 (A) (A) (A) (A) (A) (A) (A) (A) (A) (A) (A) (A)
                 (A) (A) (A) (A) (A) (A) (A) (A) (A) (A) (A) (A)
                 (A) (A) (A) (A) (A) (A) (A) (A) (A) (A) (A) (A)
                 (A) (A) (A) (A) (A) (A) (A) (A) (A)
 The electronic state is 1-A.
 Alpha  occ. eigenvalues --  -20.31122 -20.30368 -20.25075 -20.24315 -19.91290
 Alpha  occ. eigenvalues --  -15.47888 -15.33915 -15.33116 -15.30100 -11.17103
 Alpha  occ. eigenvalues --  -11.16233 -11.10905 -11.10349 -11.10046 -11.09015
 Alpha  occ. eigenvalues --  -11.08983 -11.08436 -11.08147 -11.08036 -11.07570
 Alpha  occ. eigenvalues --  -11.07048 -11.06884 -11.06875 -11.06545 -11.06424
 Alpha  occ. eigenvalues --  -11.06053 -11.05869 -11.05775 -11.05393 -11.05316
 Alpha  occ. eigenvalues --  -11.05225 -11.05164 -11.05054 -11.04867 -11.04672
 Alpha  occ. eigenvalues --  -11.04418 -11.04243 -11.04009 -11.03983 -11.03684
 Alpha  occ. eigenvalues --  -11.03509 -11.03478 -11.03446 -11.03358 -11.01914
 Alpha  occ. eigenvalues --  -11.01835 -11.01790 -11.01692 -11.01604 -11.01450
 Alpha  occ. eigenvalues --  -11.01241 -11.01114 -11.00930 -11.00823  -1.38336
 Alpha  occ. eigenvalues --   -1.37580  -1.28161  -1.27724  -1.27382  -1.21298
 Alpha  occ. eigenvalues --   -1.20979  -1.18418  -1.11638  -1.09250  -1.08771
 Alpha  occ. eigenvalues --   -1.07324  -1.06080  -1.04465  -1.03328  -1.00618
 Alpha  occ. eigenvalues --   -1.00063  -0.98731  -0.98141  -0.97563  -0.96543
 Alpha  occ. eigenvalues --   -0.96370  -0.94088  -0.94036  -0.93677  -0.92300
 Alpha  occ. eigenvalues --   -0.92058  -0.91351  -0.91240  -0.89290  -0.87811
 Alpha  occ. eigenvalues --   -0.86477  -0.84796  -0.82727  -0.82134  -0.81534
 Alpha  occ. eigenvalues --   -0.80428  -0.79190  -0.78833  -0.78047  -0.77247
 Alpha  occ. eigenvalues --   -0.76841  -0.74552  -0.73693  -0.72820  -0.71919
 Alpha  occ. eigenvalues --   -0.70909  -0.69913  -0.69194  -0.69039  -0.66325
 Alpha  occ. eigenvalues --   -0.65572  -0.65130  -0.64562  -0.64298  -0.63506
 Alpha  occ. eigenvalues --   -0.63131  -0.61847  -0.61649  -0.61505  -0.60823
 Alpha  occ. eigenvalues --   -0.60531  -0.60315  -0.59342  -0.59237  -0.58480
 Alpha  occ. eigenvalues --   -0.58228  -0.58155  -0.57903  -0.57709  -0.57312
 Alpha  occ. eigenvalues --   -0.57047  -0.56608  -0.56419  -0.56210  -0.55451
 Alpha  occ. eigenvalues --   -0.55030  -0.54950  -0.54500  -0.54331  -0.54228
 Alpha  occ. eigenvalues --   -0.53452  -0.53365  -0.52984  -0.52540  -0.51946
 Alpha  occ. eigenvalues --   -0.51436  -0.51349  -0.51023  -0.50531  -0.50426
 Alpha  occ. eigenvalues --   -0.50304  -0.49671  -0.49452  -0.49012  -0.48905
 Alpha  occ. eigenvalues --   -0.48730  -0.48045  -0.47885  -0.47531  -0.47391
 Alpha  occ. eigenvalues --   -0.46742  -0.46495  -0.46020  -0.45598  -0.45330
 Alpha  occ. eigenvalues --   -0.45212  -0.44490  -0.44406  -0.44298  -0.44004
 Alpha  occ. eigenvalues --   -0.43979  -0.43387  -0.43122  -0.42423  -0.42279
 Alpha  occ. eigenvalues --   -0.42014  -0.41811  -0.41713  -0.41287  -0.41058
 Alpha  occ. eigenvalues --   -0.40765  -0.40114  -0.39031  -0.38758  -0.38001
 Alpha  occ. eigenvalues --   -0.37448  -0.36934  -0.36063  -0.35712  -0.34569
 Alpha  occ. eigenvalues --   -0.33851  -0.33711  -0.33069  -0.32391  -0.31694
 Alpha  occ. eigenvalues --   -0.27139  -0.26616  -0.25630  -0.21336  -0.20247
 Alpha  occ. eigenvalues --   -0.14935  -0.14673
 Alpha virt. eigenvalues --    0.26915   0.27277   0.27955   0.29381   0.29984
 Alpha virt. eigenvalues --    0.30731   0.46643   0.47038   0.48718   0.48775
 Alpha virt. eigenvalues --    0.49465   0.50031   0.50733   0.51114   0.52616
 Alpha virt. eigenvalues --    0.53120   0.54490   0.54583   0.55856   0.55984
 Alpha virt. eigenvalues --    0.56359   0.57581   0.58179   0.58436   0.58919
 Alpha virt. eigenvalues --    0.59479   0.59654   0.60012   0.60303   0.60970
 Alpha virt. eigenvalues --    0.61390   0.62010   0.62408   0.62499   0.63008
 Alpha virt. eigenvalues --    0.63525   0.63647   0.63778   0.64373   0.64437
 Alpha virt. eigenvalues --    0.64701   0.64832   0.65212   0.65324   0.65442
 Alpha virt. eigenvalues --    0.65540   0.65772   0.66077   0.66630   0.67156
 Alpha virt. eigenvalues --    0.67396   0.67843   0.67998   0.68126   0.68546
 Alpha virt. eigenvalues --    0.68809   0.69285   0.69374   0.69550   0.69777
 Alpha virt. eigenvalues --    0.69948   0.70193   0.70668   0.70780   0.70947
 Alpha virt. eigenvalues --    0.70976   0.71454   0.71530   0.71743   0.72629
 Alpha virt. eigenvalues --    0.73160   0.73344   0.73717   0.73893   0.74058
 Alpha virt. eigenvalues --    0.74255   0.74593   0.74913   0.75030   0.75242
 Alpha virt. eigenvalues --    0.75468   0.75758   0.75859   0.76316   0.76528
 Alpha virt. eigenvalues --    0.76745   0.77133   0.77366   0.77460   0.77811
 Alpha virt. eigenvalues --    0.78116   0.78510   0.78786   0.79106   0.79261
 Alpha virt. eigenvalues --    0.79757   0.80023   0.80259   0.80505   0.80945
 Alpha virt. eigenvalues --    0.81480   0.81621   0.81873   0.82160   0.82356
 Alpha virt. eigenvalues --    0.82999   0.84040   0.84518   0.84945   0.85096
 Alpha virt. eigenvalues --    0.86100   0.86835   0.86897   0.87637   0.87972
 Alpha virt. eigenvalues --    0.88034   0.89906   0.91161   0.91953   0.94165
 Alpha virt. eigenvalues --    0.94861   0.95649   0.98269   1.00797   1.01681
 Alpha virt. eigenvalues --    1.10988   1.11965   1.16014   1.16610
          Condensed to atoms (all electrons):
 Mulliken charges:
               1
     1  C   -0.074026
     2  C    0.000385
     3  C   -0.062681
     4  C   -0.090530
     5  C    0.088243
     6  C   -0.012707
     7  N   -0.286543
     8  C    0.018006
     9  C    0.127791
    10  C    0.040599
    11  C   -0.114859
    12  C   -0.105613
    13  C    0.028136
    14  N   -0.292111
    15  C   -0.015750
    16  C   -0.107864
    17  C   -0.102127
    18  C   -0.104824
    19  C   -0.019341
    20  C   -0.110496
    21  C   -0.066445
    22  C    0.319632
    23  O   -0.277710
    24  O   -0.255252
    25  C   -0.055715
    26  C   -0.078969
    27  C   -0.109623
    28  C    0.001909
    29  C   -0.074545
    30  C   -0.060066
    31  C   -0.089784
    32  C    0.089706
    33  C   -0.019067
    34  N   -0.285167
    35  C    0.014449
    36  C    0.128189
    37  C    0.033443
    38  C   -0.115751
    39  C   -0.105760
    40  C    0.032710
    41  N   -0.074012
    42  C   -0.008145
    43  C   -0.101577
    44  C   -0.101987
    45  C   -0.120423
    46  C   -0.012965
    47  C   -0.111389
    48  C   -0.066062
    49  C    0.321137
    50  O   -0.279274
    51  O   -0.254539
    52  C   -0.055253
    53  C   -0.079819
    54  O   -0.456155
    55  H    0.069785
    56  H    0.054563
    57  H    0.056976
    58  H    0.060915
    59  H    0.050082
    60  H    0.055446
    61  H    0.047650
    62  H    0.052353
    63  H    0.059058
    64  H    0.057667
    65  H    0.053494
    66  H    0.049238
    67  H    0.052674
    68  H    0.050611
    69  H    0.062465
    70  H    0.062693
    71  H    0.053723
    72  H    0.051250
    73  H    0.050807
    74  H    0.067131
    75  H    0.064565
    76  H    0.074333
    77  H    0.076924
    78  H    0.071891
    79  H    0.055406
    80  H    0.071198
    81  H    0.075696
    82  H    0.062296
    83  H    0.057217
    84  H    0.076002
    85  H    0.058629
    86  H    0.059277
    87  H    0.095575
    88  H    0.059520
    89  H    0.052239
    90  H    0.049778
    91  H    0.063529
    92  H    0.086721
    93  H    0.060311
    94  H    0.075494
    95  H    0.058632
    96  H    0.065402
    97  H    0.054053
    98  H    0.071528
    99  H    0.069958
   100  H    0.073914
   101  H    0.092755
   102  H    0.064800
   103  H    0.055378
   104  H    0.066664
   105  H    0.072948
   106  H    0.078384
   107  H    0.075689
   108  H    0.076372
   109  H    0.072231
   110  H    0.056699
 Sum of Mulliken charges =  -0.00000
 Mulliken charges with hydrogens summed into heavy atoms:
               1
     1  C   -0.004241
     2  C    0.000385
     3  C   -0.008119
     4  C   -0.033554
     5  C    0.088243
     6  C   -0.012707
     7  N   -0.286543
     8  C    0.018006
     9  C    0.127791
    10  C    0.101514
    11  C   -0.009330
    12  C   -0.005610
    13  C    0.028136
    14  N   -0.292111
    15  C    0.100975
    16  C   -0.005131
    17  C    0.001157
    18  C    0.020334
    19  C    0.085631
    20  C    0.007442
    21  C   -0.001880
    22  C    0.319632
    23  O   -0.277710
    24  O   -0.255252
    25  C    0.167433
    26  C    0.123331
    27  C    0.009891
    28  C    0.001909
    29  C    0.001457
    30  C   -0.001437
    31  C   -0.030507
    32  C    0.089706
    33  C   -0.019067
    34  N   -0.285167
    35  C    0.014449
    36  C    0.128189
    37  C    0.129018
    38  C   -0.003992
    39  C    0.007546
    40  C    0.032710
    41  N   -0.074012
    42  C    0.138887
    43  C    0.032550
    44  C    0.017468
    45  C    0.021064
    46  C    0.153703
    47  C    0.008789
    48  C    0.000603
    49  C    0.321137
    50  O   -0.279274
    51  O   -0.254539
    52  C    0.171768
    53  C    0.125484
    54  O   -0.456155
 Electronic spatial extent (au):  <R**2>=          37110.4531
 Charge=             -0.0000 electrons
 Dipole moment (field-independent basis, Debye):
    X=             -0.4097    Y=             -0.3728    Z=              3.4131  Tot=              3.4578
 Quadrupole moment (field-independent basis, Debye-Ang):
   XX=           -269.2370   YY=           -294.3776   ZZ=           -306.9851
   XY=              0.5500   XZ=            -11.2619   YZ=              2.7579
 Traceless Quadrupole moment (field-independent basis, Debye-Ang):
   XX=             20.9629   YY=             -4.1777   ZZ=            -16.7852
   XY=              0.5500   XZ=            -11.2619   YZ=              2.7579
 Octapole moment (field-independent basis, Debye-Ang**2):
  XXX=             31.9791  YYY=              6.8997  ZZZ=             73.0515  XYY=            -16.3280
  XXY=            -24.9361  XXZ=             44.6994  XZZ=            -18.2119  YZZ=            -42.4056
  YYZ=             25.0838  XYZ=            -15.5886
 Hexadecapole moment (field-independent basis, Debye-Ang**3):
 XXXX=         -30916.6092 YYYY=          -8818.2895 ZZZZ=          -5159.1772 XXXY=            204.0807
 XXXZ=             -9.5194 YYYX=            -96.1987 YYYZ=            -60.5325 ZZZX=             59.1722
 ZZZY=            -45.1688 XXYY=          -6623.9535 XXZZ=          -5909.1496 YYZZ=          -2348.1851
 XXYZ=           -226.8505 YYXZ=            -20.2785 ZZXY=            -54.1771
 N-N= 8.155678861609D+03 E-N=-2.168783076608D+04  KE= 2.279178485469D+03
 ******************************Gaussian NBO Version 3.1******************************
             N A T U R A L   A T O M I C   O R B I T A L   A N D
          N A T U R A L   B O N D   O R B I T A L   A N A L Y S I S
 ******************************Gaussian NBO Version 3.1******************************
       /RESON  / : Allow strongly delocalized NBO set
       /NLMO   / : Form Natural Localized Molecular Orbitals
       /NMR /    : Analyze NMR Sheilding Tensor 

 Analyzing the SCF density

 Job title: pleiokomenine_C_1a                                              

 Storage needed:    355564 in NPA,    438187 in NBO,   2133784 in NLMO ( 104796000 available)
 GSVD:  LWork=     -108884 too small for GESVD, short by      536270 words or      536270 for optimal perf.


 NATURAL POPULATIONS:  Natural atomic orbital occupancies 
                                                          
   NAO  Atom  No  lang   Type(AO)    Occupancy      Energy
 ----------------------------------------------------------
     1    C    1  S      Cor( 1S)     1.99993     -10.93612
     2    C    1  S      Val( 2S)     1.07977      -0.16766
     3    C    1  px     Val( 2p)     0.98372       0.15120
     4    C    1  py     Val( 2p)     0.98470       0.14997
     5    C    1  pz     Val( 2p)     1.00732       0.04791
 
     6    C    2  S      Cor( 1S)     1.99990     -10.94904
     7    C    2  S      Val( 2S)     1.07865      -0.17616
     8    C    2  px     Val( 2p)     0.94302       0.16497
     9    C    2  py     Val( 2p)     0.96304       0.16762
    10    C    2  pz     Val( 2p)     1.00059       0.05706
 
    11    C    3  S      Cor( 1S)     1.99994     -10.94064
    12    C    3  S      Val( 2S)     1.08416      -0.17572
    13    C    3  px     Val( 2p)     0.97067       0.15795
    14    C    3  py     Val( 2p)     0.97758       0.14908
    15    C    3  pz     Val( 2p)     1.00221       0.04698
 
    16    C    4  S      Cor( 1S)     1.99993     -10.93394
    17    C    4  S      Val( 2S)     1.07193      -0.16665
    18    C    4  px     Val( 2p)     0.99207       0.14564
    19    C    4  py     Val( 2p)     0.98110       0.15171
    20    C    4  pz     Val( 2p)     1.04240       0.03689
 
    21    C    5  S      Cor( 1S)     1.99985     -10.98054
    22    C    5  S      Val( 2S)     1.05917      -0.17711
    23    C    5  px     Val( 2p)     0.89992       0.15772
    24    C    5  py     Val( 2p)     0.97599       0.14971
    25    C    5  pz     Val( 2p)     0.95372       0.05536
 
    26    C    6  S      Cor( 1S)     1.99990     -10.93846
    27    C    6  S      Val( 2S)     1.08241      -0.17896
    28    C    6  px     Val( 2p)     0.97691       0.16692
    29    C    6  py     Val( 2p)     0.96319       0.13691
    30    C    6  pz     Val( 2p)     1.00198       0.06193
 
    31    N    7  S      Cor( 1S)     1.99998     -15.26367
    32    N    7  S      Val( 2S)     1.40612      -0.58979
    33    N    7  px     Val( 2p)     1.05868       0.03500
    34    N    7  py     Val( 2p)     1.10272       0.00440
    35    N    7  pz     Val( 2p)     1.70737      -0.23282
 
    36    C    8  S      Cor( 1S)     1.99996     -11.00090
    37    C    8  S      Val( 2S)     1.10867      -0.22588
    38    C    8  px     Val( 2p)     0.94696       0.09939
    39    C    8  py     Val( 2p)     0.95686       0.11852
    40    C    8  pz     Val( 2p)     0.96802       0.09490
 
    41    C    9  S      Cor( 1S)     1.99996     -11.04538
    42    C    9  S      Val( 2S)     1.11204      -0.25155
    43    C    9  px     Val( 2p)     0.94758       0.08550
    44    C    9  py     Val( 2p)     0.82754       0.13689
    45    C    9  pz     Val( 2p)     0.94153       0.08510
 
    46    C   10  S      Cor( 1S)     1.99993     -11.01176
    47    C   10  S      Val( 2S)     1.09683      -0.21312
    48    C   10  px     Val( 2p)     0.91329       0.11993
    49    C   10  py     Val( 2p)     0.95607       0.08700
    50    C   10  pz     Val( 2p)     0.95979       0.10096
 
    51    C   11  S      Cor( 1S)     1.99994     -10.97587
    52    C   11  S      Val( 2S)     1.10375      -0.21018
    53    C   11  px     Val( 2p)     1.01631       0.08672
    54    C   11  py     Val( 2p)     0.98215       0.09084
    55    C   11  pz     Val( 2p)     0.98290       0.08827
 
    56    C   12  S      Cor( 1S)     1.99996     -10.97338
    57    C   12  S      Val( 2S)     1.09149      -0.19565
    58    C   12  px     Val( 2p)     1.01131       0.08984
    59    C   12  py     Val( 2p)     0.97715       0.09593
    60    C   12  pz     Val( 2p)     0.99387       0.09416
 
    61    C   13  S      Cor( 1S)     1.99998     -10.99977
    62    C   13  S      Val( 2S)     1.10491      -0.22337
    63    C   13  px     Val( 2p)     0.94276       0.11422
    64    C   13  py     Val( 2p)     0.95399       0.11131
    65    C   13  pz     Val( 2p)     0.94791       0.10706
 
    66    N   14  S      Cor( 1S)     1.99999     -15.23385
    67    N   14  S      Val( 2S)     1.42102      -0.57552
    68    N   14  px     Val( 2p)     1.53883      -0.14399
    69    N   14  py     Val( 2p)     1.21495      -0.01219
    70    N   14  pz     Val( 2p)     1.10571       0.02748
 
    71    C   15  S      Cor( 1S)     1.99993     -11.00409
    72    C   15  S      Val( 2S)     1.06941      -0.18547
    73    C   15  px     Val( 2p)     0.98316       0.08819
    74    C   15  py     Val( 2p)     0.87551       0.13034
    75    C   15  pz     Val( 2p)     1.03420       0.07499
 
    76    C   16  S      Cor( 1S)     1.99997     -10.97293
    77    C   16  S      Val( 2S)     1.08094      -0.18625
    78    C   16  px     Val( 2p)     0.99187       0.09442
    79    C   16  py     Val( 2p)     1.00283       0.09172
    80    C   16  pz     Val( 2p)     0.99844       0.09722
 
    81    C   17  S      Cor( 1S)     1.99996     -10.97508
    82    C   17  S      Val( 2S)     1.08595      -0.19059
    83    C   17  px     Val( 2p)     1.00262       0.09304
    84    C   17  py     Val( 2p)     0.98241       0.09608
    85    C   17  pz     Val( 2p)     0.99753       0.09449
 
    86    C   18  S      Cor( 1S)     1.99995     -10.97171
    87    C   18  S      Val( 2S)     1.09230      -0.19237
    88    C   18  px     Val( 2p)     1.01601       0.09005
    89    C   18  py     Val( 2p)     0.99056       0.09581
    90    C   18  pz     Val( 2p)     0.97568       0.09994
 
    91    C   19  S      Cor( 1S)     1.99994     -10.99693
    92    C   19  S      Val( 2S)     1.07114      -0.18101
    93    C   19  px     Val( 2p)     1.00983       0.08926
    94    C   19  py     Val( 2p)     0.97532       0.08593
    95    C   19  pz     Val( 2p)     0.90984       0.12434
 
    96    C   20  S      Cor( 1S)     1.99992     -10.98083
    97    C   20  S      Val( 2S)     1.09979      -0.20874
    98    C   20  px     Val( 2p)     1.00139       0.08305
    99    C   20  py     Val( 2p)     0.96165       0.09411
   100    C   20  pz     Val( 2p)     1.01090       0.08439
 
   101    C   21  S      Cor( 1S)     1.99994     -11.00507
   102    C   21  S      Val( 2S)     1.11098      -0.23580
   103    C   21  px     Val( 2p)     1.01030       0.07281
   104    C   21  py     Val( 2p)     0.98701       0.07268
   105    C   21  pz     Val( 2p)     0.97613       0.07820
 
   106    C   22  S      Cor( 1S)     1.99991     -11.10943
   107    C   22  S      Val( 2S)     1.05523      -0.25851
   108    C   22  px     Val( 2p)     0.82503       0.06444
   109    C   22  py     Val( 2p)     0.81753       0.08785
   110    C   22  pz     Val( 2p)     0.89911       0.13090
 
   111    O   23  S      Cor( 1S)     1.99999     -20.09584
   112    O   23  S      Val( 2S)     1.80818      -1.05579
   113    O   23  px     Val( 2p)     1.41890      -0.17149
   114    O   23  py     Val( 2p)     1.53588      -0.21091
   115    O   23  pz     Val( 2p)     1.54900      -0.19162
 
   116    O   24  S      Cor( 1S)     1.99999     -20.21309
   117    O   24  S      Val( 2S)     1.73019      -1.02568
   118    O   24  px     Val( 2p)     1.63762      -0.28000
   119    O   24  py     Val( 2p)     1.50299      -0.21859
   120    O   24  pz     Val( 2p)     1.39611      -0.17884
 
   121    C   25  S      Cor( 1S)     1.99984     -11.04381
   122    C   25  S      Val( 2S)     1.07689      -0.22543
   123    C   25  px     Val( 2p)     1.04055       0.03842
   124    C   25  py     Val( 2p)     1.00980       0.04303
   125    C   25  pz     Val( 2p)     0.83828       0.08693
 
   126    C   26  S      Cor( 1S)     1.99992     -11.01148
   127    C   26  S      Val( 2S)     1.06522      -0.19194
   128    C   26  px     Val( 2p)     0.91389       0.09287
   129    C   26  py     Val( 2p)     1.02455       0.05948
   130    C   26  pz     Val( 2p)     1.01283       0.07347
 
   131    C   27  S      Cor( 1S)     1.99995     -10.97671
   132    C   27  S      Val( 2S)     1.08312      -0.18184
   133    C   27  px     Val( 2p)     0.97943       0.10285
   134    C   27  py     Val( 2p)     1.02554       0.09193
   135    C   27  pz     Val( 2p)     0.99830       0.09736
 
   136    C   28  S      Cor( 1S)     1.99990     -10.95177
   137    C   28  S      Val( 2S)     1.07826      -0.17910
   138    C   28  px     Val( 2p)     0.96227       0.11395
   139    C   28  py     Val( 2p)     0.96794       0.15452
   140    C   28  pz     Val( 2p)     0.97637       0.11132
 
   141    C   29  S      Cor( 1S)     1.99992     -10.94284
   142    C   29  S      Val( 2S)     1.08308      -0.17613
   143    C   29  px     Val( 2p)     0.99287       0.09009
   144    C   29  py     Val( 2p)     0.98654       0.13467
   145    C   29  pz     Val( 2p)     0.99236       0.10557
 
   146    C   30  S      Cor( 1S)     1.99994     -10.94606
   147    C   30  S      Val( 2S)     1.08360      -0.17960
   148    C   30  px     Val( 2p)     0.98456       0.09415
   149    C   30  py     Val( 2p)     0.98498       0.13402
   150    C   30  pz     Val( 2p)     0.97769       0.11169
 
   151    C   31  S      Cor( 1S)     1.99993     -10.93996
   152    C   31  S      Val( 2S)     1.07176      -0.17213
   153    C   31  px     Val( 2p)     1.01790       0.07827
   154    C   31  py     Val( 2p)     0.98568       0.13917
   155    C   31  pz     Val( 2p)     1.01213       0.09895
 
   156    C   32  S      Cor( 1S)     1.99985     -10.98826
   157    C   32  S      Val( 2S)     1.06073      -0.18591
   158    C   32  px     Val( 2p)     0.91649       0.09367
   159    C   32  py     Val( 2p)     0.97756       0.13692
   160    C   32  pz     Val( 2p)     0.93114       0.11148
 
   161    C   33  S      Cor( 1S)     1.99990     -10.94661
   162    C   33  S      Val( 2S)     1.08110      -0.18792
   163    C   33  px     Val( 2p)     0.99628       0.09514
   164    C   33  py     Val( 2p)     0.96043       0.12710
   165    C   33  pz     Val( 2p)     0.99463       0.11443
 
   166    N   34  S      Cor( 1S)     1.99998     -15.27181
   167    N   34  S      Val( 2S)     1.41045      -0.59922
   168    N   34  px     Val( 2p)     1.63047      -0.20759
   169    N   34  py     Val( 2p)     1.10364      -0.00330
   170    N   34  pz     Val( 2p)     1.12920      -0.00352
 
   171    C   35  S      Cor( 1S)     1.99996     -11.01621
   172    C   35  S      Val( 2S)     1.10436      -0.23917
   173    C   35  px     Val( 2p)     0.97718       0.07091
   174    C   35  py     Val( 2p)     0.95918       0.09950
   175    C   35  pz     Val( 2p)     0.94660       0.08795
 
   176    C   36  S      Cor( 1S)     1.99996     -11.05587
   177    C   36  S      Val( 2S)     1.11149      -0.26147
   178    C   36  px     Val( 2p)     0.93959       0.07610
   179    C   36  py     Val( 2p)     0.83139       0.12530
   180    C   36  pz     Val( 2p)     0.94597       0.07489
 
   181    C   37  S      Cor( 1S)     1.99990     -11.03005
   182    C   37  S      Val( 2S)     1.12199      -0.25455
   183    C   37  px     Val( 2p)     1.00948       0.05938
   184    C   37  py     Val( 2p)     0.95355       0.07057
   185    C   37  pz     Val( 2p)     0.85050       0.10556
 
   186    C   38  S      Cor( 1S)     1.99994     -10.98386
   187    C   38  S      Val( 2S)     1.10496      -0.21920
   188    C   38  px     Val( 2p)     0.99371       0.07955
   189    C   38  py     Val( 2p)     0.97933       0.08300
   190    C   38  pz     Val( 2p)     1.00810       0.07900
 
   191    C   39  S      Cor( 1S)     1.99995     -10.98339
   192    C   39  S      Val( 2S)     1.09370      -0.20685
   193    C   39  px     Val( 2p)     1.00768       0.08248
   194    C   39  py     Val( 2p)     0.97632       0.08658
   195    C   39  pz     Val( 2p)     0.99550       0.08289
 
   196    C   40  S      Cor( 1S)     1.99998     -11.01957
   197    C   40  S      Val( 2S)     1.10307      -0.23922
   198    C   40  px     Val( 2p)     0.94761       0.09248
   199    C   40  py     Val( 2p)     0.95156       0.09539
   200    C   40  pz     Val( 2p)     0.94251       0.09428
 
   201    N   41  S      Cor( 1S)     1.99999     -15.41881
   202    N   41  S      Val( 2S)     1.40652      -0.65910
   203    N   41  px     Val( 2p)     1.22985      -0.11532
   204    N   41  py     Val( 2p)     1.13808      -0.08947
   205    N   41  pz     Val( 2p)     1.18531      -0.10568
 
   206    C   42  S      Cor( 1S)     1.99990     -11.03153
   207    C   42  S      Val( 2S)     1.08925      -0.22867
   208    C   42  px     Val( 2p)     0.93302       0.07957
   209    C   42  py     Val( 2p)     0.89668       0.08182
   210    C   42  pz     Val( 2p)     1.03564       0.04800
 
   211    C   43  S      Cor( 1S)     1.99996     -10.98977
   212    C   43  S      Val( 2S)     1.08068      -0.19923
   213    C   43  px     Val( 2p)     1.01662       0.08079
   214    C   43  py     Val( 2p)     0.98775       0.08155
   215    C   43  pz     Val( 2p)     0.98680       0.08614
 
   216    C   44  S      Cor( 1S)     1.99995     -10.98501
   217    C   44  S      Val( 2S)     1.08521      -0.19928
   218    C   44  px     Val( 2p)     1.02155       0.07653
   219    C   44  py     Val( 2p)     0.97712       0.09066
   220    C   44  pz     Val( 2p)     0.98705       0.08921
 
   221    C   45  S      Cor( 1S)     1.99995     -10.99019
   222    C   45  S      Val( 2S)     1.08897      -0.21021
   223    C   45  px     Val( 2p)     0.99901       0.07874
   224    C   45  py     Val( 2p)     1.02640       0.06788
   225    C   45  pz     Val( 2p)     0.98057       0.06449
 
   226    C   46  S      Cor( 1S)     1.99992     -11.02522
   227    C   46  S      Val( 2S)     1.09672      -0.23055
   228    C   46  px     Val( 2p)     0.98508       0.06594
   229    C   46  py     Val( 2p)     0.89816       0.07593
   230    C   46  pz     Val( 2p)     0.98180       0.06984
 
   231    C   47  S      Cor( 1S)     1.99992     -10.99417
   232    C   47  S      Val( 2S)     1.10113      -0.22295
   233    C   47  px     Val( 2p)     0.98932       0.07528
   234    C   47  py     Val( 2p)     0.96537       0.07876
   235    C   47  pz     Val( 2p)     1.01817       0.06807
 
   236    C   48  S      Cor( 1S)     1.99994     -11.01552
[...]
  109       0.3711        1.0231      -0.6519        -0.2579       0.6290
 Sum       30.8413        4.0340      26.8073        -1.9378      32.7791

 Contributions to Isotropic shielding for atom   95 (    32.1488 ppm):
                         Standard Origin              Atomic Origin
 NLMO      Total    Paramagnetic  Diamagnetic   Paramagnetic  Diamagnetic
   98      -0.1608        0.6425      -0.8033        -1.0323       0.8715
  102       0.5895        3.1375      -2.5480        -0.3584       0.9479
  104      -0.0117        0.3868      -0.3985        -1.0315       1.0198
  105       1.1031        1.2131      -0.1100         0.0389       1.0642
  106       2.1417        3.2699      -1.1282         0.3030       1.8387
  107      26.4420       -0.5420      26.9840         0.6342      25.8079
  109      -0.1391        1.4434      -1.5825        -1.2861       1.1470
 Sum       29.9647        9.5512      20.4135        -2.7322      32.6969

 Contributions to Isotropic shielding for atom   96 (    31.7583 ppm):
                         Standard Origin              Atomic Origin
 NLMO      Total    Paramagnetic  Diamagnetic   Paramagnetic  Diamagnetic
   96      -0.1728        0.5153      -0.6881        -1.0173       0.8445
   97       2.1822       -2.0894       4.2716         1.3034       0.8788
  102       0.3761       -0.9598       1.3359         0.1900       0.1862
  105       1.1158        0.6454       0.4703         0.0679       1.0479
  106      -0.0769       -2.5452       2.4683        -1.2905       1.2136
  108      25.8112        0.5450      25.2662         0.2110      25.6002
  109       1.8501        1.1185       0.7316         0.0198       1.8303
 Sum       31.0858       -2.7701      33.8560        -0.5157      31.6015

 Contributions to Isotropic shielding for atom   97 (    32.2450 ppm):
                         Standard Origin              Atomic Origin
 NLMO      Total    Paramagnetic  Diamagnetic   Paramagnetic  Diamagnetic
   97       1.2997        0.3217       0.9779         0.4971       0.8025
   98      -0.2613        1.0887      -1.3500        -1.2428       0.9815
  105       0.3994        3.6378      -3.2384        -0.5873       0.9868
  107      -0.0529       -1.5055       1.4526        -1.2313       1.1784
  108       2.4349        0.4346       2.0003         0.6444       1.7905
  109      26.3440       -0.2544      26.5985         0.4827      25.8614
  117      -0.0455       -1.2206       1.1751        -0.8896       0.8441
 Sum       30.1183        2.5024      27.6159        -2.3269      32.4451

 Contributions to Isotropic shielding for atom   98 (    32.7833 ppm):
                         Standard Origin              Atomic Origin
 NLMO      Total    Paramagnetic  Diamagnetic   Paramagnetic  Diamagnetic
   71      -0.8624        0.4052      -1.2676        -1.7817       0.9193
   80      -0.0412        1.3200      -1.3613        -0.9804       0.9392
   85       1.8271       -1.4912       3.3183         1.1461       0.6810
   89      -0.1191        0.2224      -0.3414        -1.0597       0.9407
  110       0.8232        1.5439      -0.7207         0.1249       0.6983
  111      25.9582        0.1298      25.8284         0.5751      25.3831
  112       1.7751        3.3703      -1.5952         0.0081       1.7669
  114       0.1273       -0.2625       0.3898        -0.8881       1.0154
  121       0.0318       -1.0652       1.0970        -0.8283       0.8600
  126       0.0249       -1.0671       1.0920        -0.3145       0.3393
 Sum       29.5448        3.1055      26.4393        -3.9984      33.5432

 Contributions to Isotropic shielding for atom   99 (    32.5210 ppm):
                         Standard Origin              Atomic Origin
 NLMO      Total    Paramagnetic  Diamagnetic   Paramagnetic  Diamagnetic
   83      -0.3364        1.1405      -1.4769        -0.7898       0.4534
   85       1.3945       -1.0347       2.4292         0.6653       0.7292
   87      -0.2289       -0.1838      -0.0451        -1.0976       0.8686
   89      -0.3617        0.4435      -0.8051        -1.2662       0.9045
  104      -0.1548       -1.8173       1.6625        -0.3410       0.1862
  110       0.6823        2.0784      -1.3961        -0.1469       0.8292
  111       1.7888        3.1889      -1.4002        -0.1229       1.9116
  112      26.1767       -0.3402      26.5169         0.5334      25.6433
  115      -0.0637       -0.0153      -0.0485        -1.0079       0.9442
  116      -0.2316       -1.1834       0.9518        -0.7622       0.5306
  120       1.2083       -1.0375       2.2458         0.3851       0.8233
  121       0.0673       -3.4825       3.5497        -1.1682       1.2354
  126       0.0568       -1.1618       1.2187        -0.4844       0.5412
  191      -0.7721        1.5506      -2.3227         0.1977      -0.9698
 Sum       29.2255       -1.8545      31.0800        -5.4056      34.6310

 Contributions to Isotropic shielding for atom  100 (    31.1257 ppm):
                         Standard Origin              Atomic Origin
 NLMO      Total    Paramagnetic  Diamagnetic   Paramagnetic  Diamagnetic
   71      -0.2107        0.0740      -0.2847        -1.0815       0.8708
   84      -0.1931        0.4514      -0.6445        -1.0129       0.8198
   99      -0.6902        1.0143      -1.7045        -1.9619       1.2717
  100       0.1967        1.1721      -0.9755        -0.5278       0.7244
  110      -0.0600        1.3629      -1.4229        -0.9325       0.8725
  112       0.0378        0.2704      -0.2326        -1.0365       1.0744
  113      26.4172        0.0134      26.4038         1.1347      25.2824
  114       1.7181        1.1990       0.5191        -0.1536       1.8717
  195       0.3250       -0.7586       1.0836         0.7445      -0.4194
 Sum       27.5409        4.7990      22.7419        -4.8275      32.3684

 Contributions to Isotropic shielding for atom  101 (    30.2768 ppm):
                         Standard Origin              Atomic Origin
 NLMO      Total    Paramagnetic  Diamagnetic   Paramagnetic  Diamagnetic
   71      -0.4707        0.1028      -0.5735        -1.6955       1.2248
   84      -0.2303        0.4911      -0.7214        -1.0601       0.8298
   99      -0.5223        0.5656      -1.0879        -0.6020       0.0797
  100       2.2050       -1.7218       3.9267         1.2513       0.9537
  101      -0.0671       -0.0293      -0.0378        -1.0417       0.9746
  110       0.8296       -1.3272       2.1569        -0.0302       0.8598
  113       0.8712        1.9146      -1.0434        -1.0041       1.8753
  114      25.5642        0.7953      24.7689         0.7543      24.8099
  195       0.2532       -0.0317       0.2850         1.0676      -0.8144
 Sum       28.4328        0.7593      27.6735        -2.3604      30.7932

 Contributions to Isotropic shielding for atom  102 (    31.4706 ppm):
                         Standard Origin              Atomic Origin
 NLMO      Total    Paramagnetic  Diamagnetic   Paramagnetic  Diamagnetic
   83      -0.2003        0.4285      -0.6288        -1.0156       0.8153
   87       0.2967       -0.7809       1.0775        -0.0145       0.3112
   89      -0.4439        0.6271      -1.0710        -1.0721       0.6282
   97      -0.2575        1.2742      -1.5317        -0.9031       0.6456
   98       1.5775       -0.4141       1.9916         0.6181       0.9594
  104      -0.4646       -2.4044       1.9398        -0.5929       0.1283
  112      -0.2598       -1.5325       1.2727        -0.3225       0.0627
  115       0.4878        2.1554      -1.6676        -0.4048       0.8926
  116      26.3612       -0.2703      26.6315         0.6859      25.6753
  117       1.6032        3.6109      -2.0077        -0.3012       1.9044
  118      -0.2787        0.4203      -0.6989        -1.3441       1.0654
  120       0.4459       -1.6197       2.0656        -0.4316       0.8775
  121       0.5909       -2.4000       2.9909        -1.1215       1.7124
  191      -0.7002        1.0348      -1.7349         0.1886      -0.8887
 Sum       28.7582        0.1293      28.6289        -6.0313      34.7896

 Contributions to Isotropic shielding for atom  103 (    32.0334 ppm):
                         Standard Origin              Atomic Origin
 NLMO      Total    Paramagnetic  Diamagnetic   Paramagnetic  Diamagnetic
   87       0.3967       -0.8203       1.2170         0.2150       0.1817
   94      -0.1032        1.0620      -1.1651        -0.9464       0.8433
   97      -0.2360        1.3381      -1.5741        -1.0119       0.7759
   98       1.8794       -0.5468       2.4263         0.8544       1.0251
  115       0.6696        1.9004      -1.2308        -0.3939       1.0635
  116       1.5477        3.3842      -1.8365        -0.3514       1.8991
  117      26.4389       -0.2487      26.6876         0.6187      25.8202
  118      -0.0867        1.0667      -1.1535        -0.4548       0.3681
  119      -0.1784       -0.3030       0.1246        -1.3213       1.1429
  121       0.2202       -0.8651       1.0853        -0.8473       1.0675
 Sum       30.5482        5.9674      24.5808        -3.6391      34.1873

 Contributions to Isotropic shielding for atom  104 (    31.1615 ppm):
                         Standard Origin              Atomic Origin
 NLMO      Total    Paramagnetic  Diamagnetic   Paramagnetic  Diamagnetic
   81      -0.3394        0.9914      -1.3308        -0.9835       0.6441
   86      -0.3780        1.3325      -1.7104        -1.5267       1.1487
   87       2.3101       -1.2828       3.5929         1.3633       0.9468
   91      -0.1120        0.9577      -1.0697        -0.8804       0.7684
   98       0.3390       -0.9997       1.3386         0.0794       0.2596
  115       1.3220        0.8625       0.4595         0.1417       1.1803
  117      -0.2034       -0.5115       0.3081        -1.3576       1.1542
  118       0.1905        4.1831      -3.9925        -0.7566       0.9471
  119      25.8787       -0.3614      26.2401         0.3574      25.5213
  122       1.0909       -2.4423       3.5332        -0.5586       1.6494
  124       0.1623       -0.8636       1.0259        -0.4774       0.6397
  126       0.1486       -0.8524       1.0010        -0.2959       0.4445
  127      -0.2351       -1.5597       1.3246        -0.6507       0.4157
  193      -0.8323        0.5639      -1.3962         0.1422      -0.9745
  194      -0.1879       -1.1336       0.9457        -0.7381       0.5503
 Sum       29.1540       -1.1159      30.2700        -6.1414      35.2955

 Contributions to Isotropic shielding for atom  105 (    30.5384 ppm):
                         Standard Origin              Atomic Origin
 NLMO      Total    Paramagnetic  Diamagnetic   Paramagnetic  Diamagnetic
  120      -1.2181        0.8013      -2.0194        -2.1215       0.9034
  121      -0.5378        1.9942      -2.5320        -2.0818       1.5440
  122      -2.1677        1.7056      -3.8732        -2.9478       0.7801
  123       1.4156       -0.0749       1.4905        -0.0508       1.4664
  124      26.5468        0.6640      25.8828         1.3143      25.2325
  125       1.2310        4.2326      -3.0016        -0.8105       2.0415
  126       1.1909        1.9537      -0.7628        -0.6810       1.8719
  191       0.5606       -1.5766       2.1372         1.3396      -0.7790
  192       0.8420        0.9067      -0.0646         1.0628      -0.2208
  193       1.5470       -1.4055       2.9525         1.6074      -0.0604
  194       0.4345        1.2349      -0.8004        -0.0376       0.4721
 Sum       29.8448       10.4359      19.4089        -3.4069      33.2517

 Contributions to Isotropic shielding for atom  106 (    30.4914 ppm):
                         Standard Origin              Atomic Origin
 NLMO      Total    Paramagnetic  Diamagnetic   Paramagnetic  Diamagnetic
  120      -0.6400        0.2966      -0.9366        -1.2679       0.6279
  121      -0.1165        0.9984      -1.1150        -1.1448       1.0282
  122      -0.6758        0.5186      -1.1944        -0.7105       0.0346
  123       1.4239       -0.6542       2.0781        -0.6526       2.0765
  124       0.5475        3.5708      -3.0233        -1.4374       1.9848
  125      25.9610        0.4019      25.5591         0.7788      25.1821
  126       1.1569        1.3699      -0.2130        -0.8389       1.9958
  193       1.0343       -0.7459       1.7802         1.5049      -0.4706
  194       1.0059        0.5177       0.4883         0.7500       0.2559
 Sum       29.6972        6.2739      23.4233        -3.0182      32.7154

 Contributions to Isotropic shielding for atom  107 (    30.5890 ppm):
                         Standard Origin              Atomic Origin
 NLMO      Total    Paramagnetic  Diamagnetic   Paramagnetic  Diamagnetic
  120      -0.9510        0.6179      -1.5689        -1.8510       0.9001
  121      -0.3672        1.3220      -1.6892        -1.9009       1.5337
  122      -1.6640        1.7302      -3.3941        -2.5119       0.8479
  123       2.6350       -4.2452       6.8802         1.2199       1.4151
  124       0.9529        2.4240      -1.4711        -0.9216       1.8745
  125       1.4867        2.0158      -0.5290        -0.5576       2.0444
  126      26.2423        0.9461      25.2962         1.0823      25.1601
  191       0.3393       -1.0807       1.4199         1.1110      -0.7717
  193       0.9959       -0.3769       1.3728         1.0431      -0.0472
 Sum       29.6700        3.3533      26.3167        -3.2867      32.9567

 Contributions to Isotropic shielding for atom  108 (    30.9031 ppm):
                         Standard Origin              Atomic Origin
 NLMO      Total    Paramagnetic  Diamagnetic   Paramagnetic  Diamagnetic
   76      -0.3392       -0.1226      -0.2166        -1.1994       0.8602
   81      -0.3452        0.5549      -0.9000        -1.1061       0.7609
   82       1.0397        0.3805       0.6592        -0.1464       1.1861
   87      -0.1477        0.5974      -0.7451        -1.0257       0.8780
  122       1.1288       -1.1351       2.2639         0.5757       0.5531
  125       0.0749       -1.4388       1.5137        -0.6588       0.7337
  127      25.9911        0.2542      25.7368         0.6601      25.3309
  128       1.5053        3.3891      -1.8838        -0.4764       1.9817
  129       1.9019        0.0687       1.8332         0.0624       1.8395
  193      -1.0850        0.7178      -1.8027         0.2528      -1.3378
 Sum       29.7246        3.2660      26.4585        -3.0618      32.7863

 Contributions to Isotropic shielding for atom  109 (    30.7506 ppm):
                         Standard Origin              Atomic Origin
 NLMO      Total    Paramagnetic  Diamagnetic   Paramagnetic  Diamagnetic
   75      -0.4986        0.3891      -0.8877        -1.2137       0.7151
   76      -0.6385        0.0641      -0.7026        -1.9916       1.3531
   82       1.0084        0.9829       0.0255        -0.2578       1.2662
  122       0.6665       -0.5047       1.1712         0.3976       0.2689
  125       0.0087       -1.3445       1.3532        -0.6160       0.6247
  127       1.5624        3.3499      -1.7875        -0.4074       1.9698
  128      26.0638        0.1540      25.9098         0.7066      25.3572
  129       1.8563        0.4639       1.3924         0.0625       1.7938
 Sum       30.0290        3.5547      26.4744        -3.3198      33.3488

 Contributions to Isotropic shielding for atom  110 (    31.9731 ppm):
                         Standard Origin              Atomic Origin
 NLMO      Total    Paramagnetic  Diamagnetic   Paramagnetic  Diamagnetic
   76      -0.4492       -0.3651      -0.0840        -1.6649       1.2158
   82       1.8999       -2.7857       4.6856         1.1382       0.7617
   86      -0.1084        0.2593      -0.3677        -1.1373       1.0289
  122       0.5382       -0.6061       1.1444        -0.0189       0.5571
  127       1.8382        0.7324       1.1058        -0.0843       1.9225
  128       1.8324        1.3946       0.4378        -0.0597       1.8921
  129      26.2870        0.8272      25.4597         0.6097      25.6772
 Sum       31.8381       -0.5435      32.3816        -1.2172      33.0553
 
 1\1\GINC-PCSN02\SP\RHF\STO-3G\C45H56N4O5\ABENIDD\30-May-2024\0\\# nmr=
 giao hf/sto-3g pop=nbo geom=connectivity\\pleiokomenine_C_1a\\0,1\C,0,
 0.,0.,0.\C,0,1.4022,0.,0.\C,0,2.086,1.2337,0.\C,0,1.3922,2.4538,0.0049
 \C,0,0.0081,2.4409,0.0046\C,0,-0.6699,1.2123,0.0275\N,0,-0.8853,3.5459
 ,-0.025\C,0,-2.1485,1.4714,0.157\C,0,-2.1555,2.9163,-0.4766\C,0,-3.161
 5,0.5847,-0.5803\C,0,-2.1383,2.7804,-2.0615\C,0,-3.385,2.0451,-2.5709\
 C,0,-4.17,1.4905,-1.3656\N,0,-3.742,-0.2655,0.4627\C,0,-4.9621,-0.9602
 ,0.0811\C,0,-5.9966,-0.0993,-0.6432\C,0,-5.3734,0.6518,-1.82\C,0,-2.49
 07,1.2872,1.6565\C,0,-3.7913,0.4955,1.6995\C,0,-4.6445,2.7504,-0.5636\
 C,0,-3.459,3.6774,-0.177\C,0,-3.6118,4.2566,1.2184\O,0,-4.3758,3.8334,
 2.0773\O,0,-2.838,5.3689,1.3652\C,0,-2.8963,5.9548,2.6652\C,0,-0.3898,
 4.7681,-0.6382\C,0,2.1699,-1.3075,-0.0008\C,0,1.7713,-2.2355,1.1283\C,
 0,0.7884,-3.2117,0.9161\C,0,2.3138,-2.0656,2.4179\C,0,1.8572,-2.8258,3
 .5017\C,0,0.8352,-3.7377,3.2974\C,0,0.3356,-3.9468,2.0001\N,0,0.1368,-
 4.5041,4.2731\C,0,-0.726,-5.015,2.0592\C,0,-1.1312,-4.8269,3.5726\C,0,
 -1.9723,-4.8878,1.1848\C,0,-2.134,-3.5957,3.6773\C,0,-3.4274,-3.8699,2
 .8931\C,0,-3.2446,-5.1483,2.0415\N,0,-1.7827,-5.7967,-0.0376\C,0,-2.78
 33,-6.9249,-0.0867\C,0,-4.2252,-6.4619,0.0713\C,0,-4.4442,-5.3682,1.11
 79\C,0,-0.0965,-6.3331,1.5937\C,0,-0.3793,-6.3465,0.1025\C,0,-3.0786,-
 6.3085,3.0856\C,0,-1.9473,-6.0139,4.1162\C,0,-1.1736,-7.2621,4.5146\O,
 0,-1.2203,-8.3332,3.9222\O,0,-0.4892,-7.0606,5.6738\C,0,0.2817,-8.182,
 6.1052\C,0,0.1245,-3.9585,5.6247\O,0,-1.8778,-5.0694,-1.1975\H,0,-0.56
 78,-0.9257,0.0164\H,0,3.1737,1.2524,0.0014\H,0,1.9467,3.3849,0.0106\H,
 0,-2.6548,-0.0794,-1.2936\H,0,-2.0937,3.7706,-2.533\H,0,-1.2445,2.2513
 ,-2.4148\H,0,-4.0095,2.7298,-3.1585\H,0,-3.0844,1.2411,-3.2542\H,0,-4.
 679,-1.7864,-0.5842\H,0,-5.4216,-1.4364,0.9559\H,0,-6.8045,-0.7414,-1.
 0135\H,0,-6.4581,0.6036,0.0589\H,0,-5.0547,-0.0784,-2.5753\H,0,-6.1309
 ,1.2846,-2.2976\H,0,-1.7275,0.6799,2.1653\H,0,-2.5381,2.2148,2.2259\H,
 0,-3.8139,-0.1655,2.5727\H,0,-4.6594,1.1529,1.7669\H,0,-5.3351,3.3328,
 -1.1907\H,0,-5.2435,2.4669,0.302\H,0,-3.5243,4.555,-0.8386\H,0,-2.5888
 ,5.2324,3.428\H,0,-2.2003,6.7979,2.688\H,0,-3.9035,6.3309,2.8693\H,0,0
 .0393,4.5867,-1.6301\H,0,0.3748,5.2308,-0.005\H,0,-1.1958,5.4996,-0.75
 1\H,0,2.0187,-1.8027,-0.9687\H,0,3.249,-1.1184,0.0676\H,0,0.3523,-3.35
 07,-0.0711\H,0,3.0738,-1.3062,2.5895\H,0,2.2772,-2.6566,4.4863\H,0,-2.
 0371,-3.8792,0.751\H,0,-1.6806,-2.6693,3.3029\H,0,-2.3909,-3.3907,4.72
 45\H,0,-4.2695,-3.9853,3.5872\H,0,-3.664,-3.0019,2.2659\H,0,-2.6447,-7
 .4123,-1.0599\H,0,-2.4995,-7.6514,0.6767\H,0,-4.5974,-6.0967,-0.8942\H
 ,0,-4.845,-7.3329,0.3169\H,0,-4.6601,-4.4326,0.5838\H,0,-5.3483,-5.589
 2,1.6986\H,0,0.9748,-6.4255,1.8017\H,0,-0.5863,-7.2054,2.0151\H,0,-0.3
 396,-7.3441,-0.3452\H,0,0.2879,-5.6801,-0.4531\H,0,-2.928,-7.2699,2.59
 58\H,0,-4.0196,-6.4276,3.6412\H,0,-2.4503,-5.7101,5.0475\H,0,-0.3738,-
 9.0223,6.3536\H,0,0.8285,-7.8903,7.0062\H,0,1.0079,-8.4686,5.3379\H,0,
 -0.5749,-4.5098,6.2604\H,0,1.115,-4.0526,6.0827\H,0,-0.1725,-2.9036,5.
 6418\\Version=ES64L-G16RevB.01\State=1-A\HF=-2300.220022\RMSD=3.490e-0
 9\Dipole=-0.3651377,0.2009481,1.29497\Quadrupole=-3.518357,8.7172923,-
 5.1989353,1.0397721,2.9356082,-14.5335328\PG=C01 [X(C45H56N4O5)]\\@


 THE NUMBERS ARE MEANINGLESS, BUT THE TRENDS ARE IMPORTANT.
     -- LARRY BURGGRAF
 Job cpu time:       0 days  0 hours 11 minutes 55.0 seconds.
 Elapsed time:       0 days  0 hours  1 minutes 58.8 seconds.
 File lengths (MBytes):  RWF=     67 Int=      0 D2E=      0 Chk=     10 Scr=      1
 Normal termination of Gaussian 16 at Thu May 30 08:55:09 2024.
