 Entering Gaussian System, Link 0=g16
 Input=1_pleiokomenine_1a_c_7.gjf
 Output=1_pleiokomenine_1a_c_7.log
 Initial command:
 /opt/gaussian/g16/l1.exe "/data/abenidd/Elvis/pleiokomenine_C/NMR_HF/1a/1_pleiokomenine_1a_c_7/Gau-26330.inp" -scrdir="/data/abenidd/Elvis/pleiokomenine_C/NMR_HF/1a/1_pleiokomenine_1a_c_7/"
 Entering Link 1 = /opt/gaussian/g16/l1.exe PID=     26332.
  
 Copyright (c) 1988-2017, Gaussian, Inc.  All Rights Reserved.
  
 This is part of the Gaussian(R) 16 program.  It is based on
 the Gaussian(R) 09 system (copyright 2009, Gaussian, Inc.),
 the Gaussian(R) 03 system (copyright 2003, Gaussian, Inc.),
 the Gaussian(R) 98 system (copyright 1998, Gaussian, Inc.),
 the Gaussian(R) 94 system (copyright 1995, Gaussian, Inc.),
 the Gaussian 92(TM) system (copyright 1992, Gaussian, Inc.),
 the Gaussian 90(TM) system (copyright 1990, Gaussian, Inc.),
 the Gaussian 88(TM) system (copyright 1988, Gaussian, Inc.),
 the Gaussian 86(TM) system (copyright 1986, Carnegie Mellon
 University), and the Gaussian 82(TM) system (copyright 1983,
 Carnegie Mellon University). Gaussian is a federally registered
 trademark of Gaussian, Inc.
  
 This software contains proprietary and confidential information,
 including trade secrets, belonging to Gaussian, Inc.
  
 This software is provided under written license and may be
 used, copied, transmitted, or stored only in accord with that
 written license.
  
 The following legend is applicable only to US Government
 contracts under FAR:
  
                    RESTRICTED RIGHTS LEGEND
  
 Use, reproduction and disclosure by the US Government is
 subject to restrictions as set forth in subparagraphs (a)
 and (c) of the Commercial Computer Software - Restricted
 Rights clause in FAR 52.227-19.
  
 Gaussian, Inc.
 340 Quinnipiac St., Bldg. 40, Wallingford CT 06492
  
  
 ---------------------------------------------------------------
 Warning -- This program may not be used in any manner that
 competes with the business of Gaussian, Inc. or will provide
 assistance to any competitor of Gaussian, Inc.  The licensee
 of this program is prohibited from giving any competitor of
 Gaussian, Inc. access to this program.  By using this program,
 the user acknowledges that Gaussian, Inc. is engaged in the
 business of creating and licensing software in the field of
 computational chemistry and represents and warrants to the
 licensee that it is not a competitor of Gaussian, Inc. and that
 it will not use this program in any manner prohibited above.
 ---------------------------------------------------------------
  

 Cite this work as:
 Gaussian 16, Revision B.01,
 M. J. Frisch, G. W. Trucks, H. B. Schlegel, G. E. Scuseria, 
 M. A. Robb, J. R. Cheeseman, G. Scalmani, V. Barone, 
 G. A. Petersson, H. Nakatsuji, X. Li, M. Caricato, A. V. Marenich, 
 J. Bloino, B. G. Janesko, R. Gomperts, B. Mennucci, H. P. Hratchian, 
 J. V. Ortiz, A. F. Izmaylov, J. L. Sonnenberg, D. Williams-Young, 
 F. Ding, F. Lipparini, F. Egidi, J. Goings, B. Peng, A. Petrone, 
 T. Henderson, D. Ranasinghe, V. G. Zakrzewski, J. Gao, N. Rega, 
 G. Zheng, W. Liang, M. Hada, M. Ehara, K. Toyota, R. Fukuda, 
 J. Hasegawa, M. Ishida, T. Nakajima, Y. Honda, O. Kitao, H. Nakai, 
 T. Vreven, K. Throssell, J. A. Montgomery, Jr., J. E. Peralta, 
 F. Ogliaro, M. J. Bearpark, J. J. Heyd, E. N. Brothers, K. N. Kudin, 
 V. N. Staroverov, T. A. Keith, R. Kobayashi, J. Normand, 
 K. Raghavachari, A. P. Rendell, J. C. Burant, S. S. Iyengar, 
 J. Tomasi, M. Cossi, J. M. Millam, M. Klene, C. Adamo, R. Cammi, 
 J. W. Ochterski, R. L. Martin, K. Morokuma, O. Farkas, 
 J. B. Foresman, and D. J. Fox, Gaussian, Inc., Wallingford CT, 2016.
 
 ******************************************
 Gaussian 16:  ES64L-G16RevB.01 20-Dec-2017
                30-May-2024 
 ******************************************
 %nprocshared=8
 Will use up to    8 processors via shared memory.
 ----------------------------------------------
 # nmr=giao hf/sto-3g pop=nbo geom=connectivity
 ----------------------------------------------
 1/38=1,57=2,172=1/1;
 2/12=2,17=6,18=5,40=1/2;
 3/6=3,11=9,25=1,30=1/1,2,3,8;
 4//1;
 5/5=2,38=5/2;
 8/6=1,10=90,11=11/1;
 10/13=100,45=16/2;
 6/7=2,8=2,9=2,10=2,28=1,40=1,64=1/1,7;
 99/9=1/99;
 ------------------
 pleiokomenine_C_1a
 ------------------
 Symbolic Z-matrix:
 Charge =  0 Multiplicity = 1
 C                     0.        0.        0. 
 C                     1.4006    0.        0. 
 C                     2.0939    1.2285    0. 
 C                     1.408     2.4505   -0.0245 
 C                     0.0247    2.4416   -0.0768 
 C                    -0.6627    1.2163   -0.0428 
 N                    -0.8582    3.5496   -0.2002 
 C                    -2.1455    1.4875   -0.0397 
 C                    -2.0932    2.907    -0.7267 
 C                    -3.1024    0.5791   -0.8263 
 C                    -1.9495    2.7123   -2.3001 
 C                    -3.1585    1.9697   -2.8815 
 C                    -4.0384    1.4592   -1.724 
 N                    -3.7725   -0.2247    0.2007 
 C                    -4.9614   -0.929    -0.2548 
 C                    -5.928    -0.0941   -1.0943 
 C                    -5.2058    0.6083   -2.2441 
 C                    -2.6093    1.3641    1.432 
 C                    -3.9173    0.5842    1.3982 
 C                    -4.5683    2.7491   -1.0092 
 C                    -3.4114    3.6843   -0.5613 
 C                    -3.673     4.3159    0.7947 
 O                    -4.5122    3.9338    1.601 
 O                    -2.9       5.4253    0.9666 
 C                    -3.0585    6.0572    2.2363 
 C                    -0.3154    4.7511   -0.8143 
 C                     2.1566   -1.3094   -0.0688 
 C                     2.6094   -1.6698   -1.4699 
 C                     1.6838   -1.7251   -2.5225 
 C                     3.964    -1.9582   -1.7311 
 C                     4.4001   -2.2989   -3.019 
 C                     3.4779   -2.3482   -4.0506 
 C                     2.1354   -2.0226   -3.7985 
 N                     3.6983   -2.7121   -5.4067 
 C                     1.3865   -2.0216   -5.1067 
 C                     2.3293   -3.0151   -5.8905 
 C                    -0.0507   -2.5339   -5.1659 
 C                     1.9327   -4.5017   -5.4922 
 C                     0.4883   -4.8186   -5.9158 
 C                    -0.2083   -3.5123   -6.3658 
 N                    -0.9883   -1.3177   -5.1604 
 C                    -1.7752   -1.1798   -6.4402 
 C                    -2.4937   -2.4585   -6.8494 
 C                    -1.6951   -3.7462   -6.6397 
 C                     1.2587   -0.5622   -5.5655 
 C                    -0.0724   -0.1261   -4.9788 
 C                     0.5672   -3.0652   -7.6555 
 C                     2.1029   -2.9666   -7.4124 
 C                     2.7476   -1.8158   -8.1709 
 O                     2.1361   -0.8922   -8.6936 
 O                     4.0933   -1.9947   -8.2721 
 C                     4.7772   -0.9437   -8.9546 
 C                     4.8037   -3.6278   -5.6551 
 O                    -1.8671   -1.3926   -4.1097 
 H                    -0.5652   -0.9284    0.0106 
 H                     3.1817    1.2353   -0.0015 
 H                     1.9674    3.3784   -0.0303 
 H                    -2.5451   -0.1144   -1.4702 
 H                    -1.8561    3.6839   -2.8022 
 H                    -1.0364    2.1631   -2.5608 
 H                    -3.7297    2.6397   -3.5364 
 H                    -2.8139    1.1449   -3.5157 
 H                    -4.6297   -1.7803   -0.8635 
 H                    -5.4942   -1.3701    0.5964 
 H                    -6.7067   -0.7478   -1.5048 
 H                    -6.4414    0.6369   -0.4603 
 H                    -4.8308   -0.1515   -2.9423 
 H                    -5.9172    1.225    -2.806 
 H                    -2.6933    2.3134    1.9601 
 H                    -1.8952    0.7717    2.0227 
 H                    -4.0186   -0.0411    2.2917 
 H                    -4.7815    1.2494    1.3683 
 H                    -5.2015    3.3111   -1.711 
 H                    -5.2382    2.5004   -0.186 
 H                    -3.4164    4.5372   -1.2576 
 H                    -2.8256    5.359     3.0466 
 H                    -2.3553    6.8929    2.2886 
 H                    -4.0739    6.4512    2.3422 
 H                     0.1823    4.5389   -1.7673 
 H                     0.4043    5.2314   -0.1426 
 H                    -1.1078    5.4807   -1.0068 
 H                     3.0182   -1.2481    0.6087 
 H                     1.5359   -2.1277    0.3187 
 H                     0.6318   -1.5125   -2.348 
 H                     4.6937   -1.9193   -0.925 
 H                     5.4483   -2.5173   -3.1876 
 H                    -0.307    -3.0636   -4.2369 
 H                     2.6082   -5.2258   -5.9653 
 H                     2.0338   -4.6717   -4.413 
 H                    -0.0432   -5.2879   -5.0785 
 H                     0.4898   -5.5549   -6.7296 
 H                    -2.5005   -0.3751   -6.2659 
 H                    -1.09     -0.8286   -7.2137 
 H                    -3.4355   -2.5404   -6.2924 
 H                    -2.7806   -2.3733   -7.9046 
 H                    -2.1361   -4.2782   -5.7855 
 H                    -1.8335   -4.4103   -7.5018 
 H                     2.0749    0.0922   -5.2411 
 H                     1.1748   -0.4668   -6.6436 
 H                    -0.5121    0.742    -5.4791 
 H                    -0.0114    0.0768   -3.9053 
 H                     0.1696   -2.1355   -8.0608 
 H                     0.3975   -3.8058   -8.4499 
 H                     2.5459   -3.8636   -7.8724 
 H                     4.4586   -0.8979   -10.0005 
 H                     5.8481   -1.1632   -8.9274 
 H                     4.608     0.0149   -8.4539 
 H                     4.7894   -3.983    -6.69 
 H                     5.7621   -3.1195   -5.5046 
 H                     4.7648   -4.5064   -5.001 
 
 Stoichiometry    C45H56N4O5
 Framework group  C1[X(C45H56N4O5)]
 Deg. of freedom   324
 Full point group                 C1      NOp   1
 Largest Abelian subgroup         C1      NOp   1
 Largest concise Abelian subgroup C1      NOp   1
                         Standard orientation:                         
 ---------------------------------------------------------------------
 Center     Atomic      Atomic             Coordinates (Angstroms)
 Number     Number       Type             X           Y           Z
 ---------------------------------------------------------------------
      1          6           0       -1.813340   -1.731917   -1.615081
      2          6           0       -1.072804   -2.916520   -1.515074
      3          6           0       -1.361801   -3.829450   -0.479257
      4          6           0       -2.360380   -3.562814    0.467363
      5          6           0       -3.052498   -2.366283    0.392401
      6          6           0       -2.784531   -1.474923   -0.660550
      7          7           0       -4.029122   -1.856975    1.291965
      8          6           0       -3.715295   -0.294318   -0.550526
      9          6           0       -3.991665   -0.398066    0.999487
     10          6           0       -3.217278    1.120353   -0.882600
     11          6           0       -2.773243    0.259998    1.784689
     12          6           0       -2.632439    1.748895    1.446276
     13          6           0       -3.589274    2.093339    0.288491
     14          7           0       -3.820534    1.425683   -2.183643
     15          6           0       -3.772643    2.829158   -2.564389
     16          6           0       -4.175114    3.813116   -1.466219
     17          6           0       -3.409145    3.547481   -0.170183
     18          6           0       -4.866087   -0.550047   -1.553780
     19          6           0       -5.119175    0.779178   -2.253321
     20          6           0       -5.029591    1.867986    0.863190
     21          6           0       -5.212600    0.433716    1.431530
     22          6           0       -6.583004   -0.140195    1.117353
     23          8           0       -7.355023    0.298160    0.273428
     24          8           0       -6.879772   -1.168396    1.961497
     25          6           0       -8.138860   -1.789664    1.706001
     26          6           0       -3.977938   -2.351357    2.658830
     27          6           0        0.071062   -3.176053   -2.471637
     28          6           0        1.427607   -2.815080   -1.899378
     29          6           0        1.662511   -1.530595   -1.386858
     30          6           0        2.470130   -3.763287   -1.879602
     31          6           0        3.732614   -3.445793   -1.359719
     32          6           0        3.952252   -2.175492   -0.854569
     33          6           0        2.902283   -1.243197   -0.838229
     34          7           0        5.158086   -1.637846   -0.328349
     35          6           0        3.369282   -0.004887   -0.116607
     36          6           0        4.915287   -0.175624   -0.383016
     37          6           0        2.921849    1.374233   -0.595494
     38          6           0        5.235984    0.370715   -1.840611
     39          6           0        4.921001    1.872555   -1.947453
     40          6           0        4.152638    2.322668   -0.682073
     41          7           0        1.773483    1.841416    0.310741
     42          6           0        2.128591    3.062339    1.122752
     43          6           0        2.701152    4.199220    0.287027
     44          6           0        3.672133    3.769056   -0.813909
     45          6           0        2.825770   -0.072480    1.317514
     46          6           0        1.502004    0.666016    1.225342
     47          6           0        5.175366    2.144531    0.495602
     48          6           0        5.774256    0.706996    0.540533
     49          6           0        6.001685    0.206705    1.959436
     50          8           0        5.530523    0.720198    2.966668
     51          8           0        6.875459   -0.837097    1.971790
     52          6           0        7.126705   -1.379172    3.268384
     53          6           0        6.395147   -2.214462   -0.837576
     54          8           0        0.655276    2.118548   -0.434027
     55          1           0       -1.623752   -1.012005   -2.407088
     56          1           0       -0.789290   -4.750606   -0.395237
     57          1           0       -2.555936   -4.279908    1.255713
     58          1           0       -2.127530    1.131204   -1.018481
     59          1           0       -2.910916    0.155011    2.868598
     60          1           0       -1.825313   -0.245704    1.563259
     61          1           0       -2.859704    2.356868    2.331026
     62          1           0       -1.591488    1.970058    1.184051
     63          1           0       -2.741203    3.056479   -2.863904
     64          1           0       -4.380813    3.003277   -3.460379
     65          1           0       -3.967044    4.835384   -1.803685
     66          1           0       -5.255128    3.759747   -1.291237
     67          1           0       -2.344563    3.755261   -0.340172
     68          1           0       -3.743481    4.245179    0.606719
     69          1           0       -5.765656   -0.975633   -1.110193
     70          1           0       -4.562301   -1.269811   -2.328026
     71          1           0       -5.428825    0.617737   -3.291424
     72          1           0       -5.911336    1.347118   -1.763268
     73          1           0       -5.201047    2.578801    1.684564
     74          1           0       -5.794438    2.119873    0.128453
     75          1           0       -5.210773    0.533342    2.528056
     76          1           0       -8.177990   -2.175901    0.682477
     77          1           0       -8.247535   -2.630751    2.396207
     78          1           0       -8.955882   -1.084575    1.887145
     79          1           0       -2.972512   -2.275043    3.088059
     80          1           0       -4.297081   -3.398462    2.698269
     81          1           0       -4.659176   -1.786044    3.301953
     82          1           0        0.046708   -4.234483   -2.761896
     83          1           0       -0.076226   -2.612819   -3.402289
     84          1           0        0.877659   -0.778066   -1.394569
     85          1           0        2.303106   -4.763695   -2.273379
     86          1           0        4.514658   -4.196295   -1.360429
     87          1           0        2.455800    1.302054   -1.588923
     88          1           0        6.291818    0.210717   -2.093712
     89          1           0        4.667813   -0.168841   -2.608631
     90          1           0        4.337742    2.059501   -2.857764
     91          1           0        5.851867    2.443464   -2.056823
     92          1           0        1.200644    3.381256    1.613860
     93          1           0        2.814025    2.747275    1.911458
     94          1           0        1.879244    4.759882   -0.175650
     95          1           0        3.200495    4.907361    0.959493
     96          1           0        3.159027    3.888307   -1.778100
     97          1           0        4.522383    4.461442   -0.846714
     98          1           0        2.693985   -1.086821    1.709180
     99          1           0        3.442117    0.471849    2.026218
    100          1           0        1.136509    1.038593    2.187025
    101          1           0        0.717403    0.063892    0.757219
    102          1           0        4.736553    2.421181    1.453519
    103          1           0        6.005203    2.852407    0.359074
    104          1           0        6.790778    0.783541    0.124263
    105          1           0        7.624174   -0.638049    3.901449
    106          1           0        7.792098   -2.239158    3.152523
    107          1           0        6.195212   -1.722494    3.729571
    108          1           0        7.260233   -1.629210   -0.511240
    109          1           0        6.531296   -3.229793   -0.450127
    110          1           0        6.411678   -2.250605   -1.932893
 ---------------------------------------------------------------------
 Rotational constants (GHZ):           0.1001117           0.0322251           0.0291628
 Standard basis: STO-3G (5D, 7F)
 There are   326 symmetry adapted cartesian basis functions of A   symmetry.
 There are   326 symmetry adapted basis functions of A   symmetry.
   326 basis functions,   978 primitive gaussians,   326 cartesian basis functions
   197 alpha electrons      197 beta electrons
       nuclear repulsion energy      8146.4154478349 Hartrees.
 NAtoms=  110 NActive=  110 NUniq=  110 SFac= 1.00D+00 NAtFMM=   60 NAOKFM=T Big=T
 Integral buffers will be    131072 words long.
 Raffenetti 1 integral format.
 Two-electron integral symmetry is turned on.
 One-electron integrals computed using PRISM.
 NBasis=   326 RedAO= T EigKep=  1.72D-01  NBF=   326
 NBsUse=   326 1.00D-06 EigRej= -1.00D+00 NBFU=   326
 ExpMin= 1.69D-01 ExpMax= 1.31D+02 ExpMxC= 1.31D+02 IAcc=3 IRadAn=         5 AccDes= 0.00D+00
 Harris functional with IExCor=  205 and IRadAn=       5 diagonalized for initial guess.
 HarFok:  IExCor=  205 AccDes= 0.00D+00 IRadAn=         5 IDoV= 1 UseB2=F ITyADJ=14
 ICtDFT=  3500011 ScaDFX=  1.000000  1.000000  1.000000  1.000000
 FoFCou: FMM=F IPFlag=           0 FMFlag=      100000 FMFlg1=        2001
         NFxFlg=           0 DoJE=T BraDBF=F KetDBF=T FulRan=T
         wScrn=  0.000000 ICntrl=       500 IOpCl=  0 I1Cent=   200000004 NGrid=           0
         NMat0=    1 NMatS0=      1 NMatT0=    0 NMatD0=    1 NMtDS0=    0 NMtDT0=    0
 Petite list used in FoFCou.
 Requested convergence on RMS density matrix=1.00D-08 within 128 cycles.
 Requested convergence on MAX density matrix=1.00D-06.
 Requested convergence on             energy=1.00D-06.
 No special actions if energy rises.
 Integral accuracy reduced to 1.0D-05 until final iterations.
 Initial convergence to 1.0D-05 achieved.  Increase integral accuracy.
 SCF Done:  E(RHF) =  -2300.22215342     A.U. after   16 cycles
            NFock= 16  Conv=0.35D-08     -V/T= 2.0092
 Range of M.O.s used for correlation:     1   326
 NBasis=   326 NAE=   197 NBE=   197 NFC=     0 NFV=     0
 NROrb=    326 NOA=   197 NOB=   197 NVA=   129 NVB=   129
          Differentiating once with respect to magnetic field using GIAOs.
          Electric field/nuclear overlap derivatives assumed to be zero.
 FoFCou: FMM=F IPFlag=           0 FMFlag=      100000 FMFlg1=        2001
         NFxFlg=           0 DoJE=F BraDBF=F KetDBF=T FulRan=T
         wScrn=  0.000000 ICntrl=      6100 IOpCl=  0 I1Cent=           7 NGrid=         110
         NMat0=    1 NMatS0=      1 NMatT0=    0 NMatD0=    1 NMtDS0=    0 NMtDT0=    0
 Symmetry not used in FoFCou.
 FoFJK:  IHMeth= 1 ICntrl=    6127 DoSepK=F KAlg= 0 I1Cent=           0 FoldK=F
 IRaf=         1 NMat=       1 IRICut=       1 DoRegI=T DoRafI=F ISym2E= 0 IDoP0=0 IntGTp=1.
          There are     3 degrees of freedom in the 1st order CPHF.  IDoFFX=0 NUNeed=     3.
      3 vectors produced by pass  0 Test12= 8.47D-13 3.33D-08 XBig12= 1.76D+02 2.06D+00.
 AX will form     3 AO Fock derivatives at one time.
      3 vectors produced by pass  1 Test12= 8.47D-13 3.33D-08 XBig12= 6.73D-01 2.79D-01.
      3 vectors produced by pass  2 Test12= 8.47D-13 3.33D-08 XBig12= 1.98D-02 3.52D-02.
      3 vectors produced by pass  3 Test12= 8.47D-13 3.33D-08 XBig12= 6.48D-04 9.80D-03.
      3 vectors produced by pass  4 Test12= 8.47D-13 3.33D-08 XBig12= 2.20D-05 8.21D-04.
      3 vectors produced by pass  5 Test12= 8.47D-13 3.33D-08 XBig12= 3.15D-07 8.72D-05.
      3 vectors produced by pass  6 Test12= 8.47D-13 3.33D-08 XBig12= 9.05D-09 1.64D-05.
      3 vectors produced by pass  7 Test12= 8.47D-13 3.33D-08 XBig12= 3.77D-10 2.73D-06.
      3 vectors produced by pass  8 Test12= 8.47D-13 3.33D-08 XBig12= 7.25D-12 4.08D-07.
      2 vectors produced by pass  9 Test12= 8.47D-13 3.33D-08 XBig12= 1.29D-13 7.77D-08.
 InvSVY:  IOpt=1 It=  1 EMax= 5.33D-15
 Solved reduced A of dimension    29 with     3 vectors.
 Calculating GIAO nuclear magnetic shielding tensors.
 SCF GIAO Magnetic shielding tensor (ppm):
      1  C    Isotropic =   123.3132   Anisotropy =   149.4775
   XX=   159.2004   YX=    26.5071   ZX=    52.8383
   XY=    21.3271   YY=   101.2278   ZY=    73.3699
   XZ=    47.4554   YZ=    71.7298   ZZ=   109.5115
   Eigenvalues:    30.0657   116.9091   222.9649
      2  C    Isotropic =   120.5039   Anisotropy =   160.3864
   XX=   123.9215   YX=    50.0598   ZX=    73.2074
   XY=    49.2023   YY=   123.1505   ZY=    31.5407
   XZ=    79.1487   YZ=    30.7741   ZZ=   114.4397
   Eigenvalues:    40.7691    93.3144   227.4282
      3  C    Isotropic =   119.7575   Anisotropy =   155.4583
   XX=   132.9064   YX=    71.7922   ZX=    46.4985
   XY=    71.5704   YY=    77.6437   ZY=    36.4635
   XZ=    37.4703   YZ=    37.1737   ZZ=   148.7224
   Eigenvalues:    28.0199   107.8561   223.3964
      4  C    Isotropic =   133.9881   Anisotropy =   143.8181
   XX=   169.6073   YX=    29.0023   ZX=    49.5580
   XY=    28.6324   YY=   114.6825   ZY=    56.9617
   XZ=    47.3650   YZ=    69.0205   ZZ=   117.6744
   Eigenvalues:    51.3201   120.7772   229.8668
      5  C    Isotropic =   108.3791   Anisotropy =   129.4407
   XX=   121.8916   YX=    46.7008   ZX=    58.4752
   XY=    35.3055   YY=   112.6508   ZY=    21.3502
   XZ=    65.9012   YZ=    18.1521   ZZ=    90.5947
   Eigenvalues:    40.4869    89.9774   194.6729
      6  C    Isotropic =   116.6777   Anisotropy =   143.6604
   XX=   137.6908   YX=    44.0113   ZX=    53.9246
   XY=    54.9818   YY=    78.1670   ZY=    37.6279
   XZ=    44.2424   YZ=    34.1237   ZZ=   134.1752
   Eigenvalues:    49.2428    88.3389   212.4513
      7  N    Isotropic =   273.2694   Anisotropy =    81.1173
   XX=   267.0186   YX=   -17.2830   ZX=   -35.8798
   XY=   -21.5771   YY=   282.0164   ZY=    38.7493
   XZ=   -18.8946   YZ=    26.6701   ZZ=   270.7732
   Eigenvalues:   238.1632   254.2975   327.3476
      8  C    Isotropic =   195.8702   Anisotropy =    11.9899
   XX=   197.3300   YX=     0.1963   ZX=     3.1289
   XY=     6.5941   YY=   194.6097   ZY=    -6.5506
   XZ=    -1.6988   YZ=    -9.7837   ZZ=   195.6710
   Eigenvalues:   186.1550   197.5921   203.8635
      9  C    Isotropic =   180.6842   Anisotropy =    44.5007
   XX=   161.7292   YX=     5.2434   ZX=    -7.4121
   XY=   -10.1369   YY=   204.7465   ZY=   -14.1305
   XZ=   -17.6961   YZ=   -13.4279   ZZ=   175.5768
   Eigenvalues:   152.6015   179.0997   210.3513
     10  C    Isotropic =   190.1873   Anisotropy =    30.0661
   XX=   181.6774   YX=    -2.2590   ZX=    11.6190
   XY=    -3.2858   YY=   191.0169   ZY=    -8.0509
   XZ=    16.5800   YZ=    -9.4432   ZZ=   197.8677
   Eigenvalues:   173.2574   187.0731   210.2313
     11  C    Isotropic =   213.6360   Anisotropy =    20.3332
   XX=   218.5623   YX=     4.4189   ZX=    10.4194
   XY=    10.0562   YY=   212.8854   ZY=     2.4815
   XZ=     5.3887   YZ=     2.8503   ZZ=   209.4603
   Eigenvalues:   204.5594   209.1571   227.1915
     12  C    Isotropic =   213.4810   Anisotropy =    20.4595
   XX=   214.8015   YX=    -1.8794   ZX=     9.3430
   XY=    -3.8429   YY=   210.0214   ZY=    -6.9472
   XZ=     9.4609   YZ=    -5.5474   ZZ=   215.6200
   Eigenvalues:   204.3752   208.9471   227.1206
     13  C    Isotropic =   213.3759   Anisotropy =     9.3163
   XX=   217.6477   YX=     3.1450   ZX=     1.8008
   XY=     2.3530   YY=   215.6831   ZY=     0.7272
   XZ=    -2.5243   YZ=     0.8612   ZZ=   206.7968
   Eigenvalues:   206.6906   213.8503   219.5867
     14  N    Isotropic =   303.1668   Anisotropy =    56.9319
   XX=   307.5709   YX=    31.5846   ZX=    35.5830
   XY=    18.7056   YY=   300.8004   ZY=   -27.0416
   XZ=    34.8760   YZ=   -41.8178   ZZ=   301.1291
   Eigenvalues:   239.5470   328.8321   341.1214
     15  C    Isotropic =   205.1920   Anisotropy =    34.0077
   XX=   189.2622   YX=     0.0369   ZX=    -2.7818
   XY=     3.8894   YY=   224.2025   ZY=    -9.0005
   XZ=    -4.7239   YZ=    -9.6353   ZZ=   202.1112
   Eigenvalues:   188.2367   199.4755   227.8638
     16  C    Isotropic =   224.0134   Anisotropy =     8.4235
   XX=   219.5508   YX=     1.4779   ZX=     0.6819
   XY=    -3.2926   YY=   223.5066   ZY=    -0.8812
   XZ=     2.5049   YZ=    -1.9190   ZZ=   228.9827
   Eigenvalues:   219.1798   223.2313   229.6291
     17  C    Isotropic =   215.3667   Anisotropy =    19.1137
   XX=   210.1276   YX=    -0.5953   ZX=     0.6978
   XY=     2.4872   YY=   223.3622   ZY=   -10.6710
   XZ=     1.0441   YZ=    -6.4621   ZZ=   212.6104
   Eigenvalues:   207.3376   210.6533   228.1092
     18  C    Isotropic =   210.5536   Anisotropy =    37.4058
   XX=   211.6005   YX=    -7.6353   ZX=    25.3427
   XY=    -0.5645   YY=   209.6904   ZY=    -3.7182
   XZ=    21.2355   YZ=    -3.8682   ZZ=   210.3698
   Eigenvalues:   187.6869   208.4830   235.4908
     19  C    Isotropic =   199.9679   Anisotropy =    42.6008
   XX=   210.8331   YX=    20.6591   ZX=    13.5625
   XY=    20.4564   YY=   203.9118   ZY=    -8.1060
   XZ=     6.7426   YZ=    -8.4111   ZZ=   185.1589
   Eigenvalues:   172.9064   198.6289   228.3685
     20  C    Isotropic =   212.0451   Anisotropy =    22.0272
   XX=   218.9925   YX=     6.1260   ZX=    -8.7102
   XY=     6.6279   YY=   215.3522   ZY=    -3.1044
   XZ=    -9.2376   YZ=    -0.9671   ZZ=   201.7905
   Eigenvalues:   197.9359   211.4694   226.7298
     21  C    Isotropic =   208.9036   Anisotropy =    11.7474
   XX=   216.5639   YX=     4.7165   ZX=    -3.2376
   XY=    -2.9849   YY=   209.6362   ZY=     4.0058
   XZ=     0.2188   YZ=     5.6173   ZZ=   200.5106
   Eigenvalues:   198.2790   211.6966   216.7352
     22  C    Isotropic =    96.2654   Anisotropy =    99.0626
   XX=    80.1582   YX=   -80.1756   ZX=    27.5956
   XY=   -95.0515   YY=    68.3938   ZY=    29.8302
   XZ=    41.9249   YZ=    40.5896   ZZ=   140.2443
   Eigenvalues:   -28.0693   154.5584   162.3071
     23  O    Isotropic =  -134.6070   Anisotropy =   886.7881
   XX=  -270.3172   YX=  -111.4039   ZX=  -312.3590
   XY=  -114.7023   YY=   -39.4557   ZY=   404.9958
   XZ=  -292.1645   YZ=   402.8023   ZZ=   -94.0481
   Eigenvalues:  -570.5759  -289.8301   456.5851
     24  O    Isotropic =   284.4773   Anisotropy =   139.3671
   XX=   160.8984   YX=   -91.4581   ZX=   -44.1090
   XY=    20.7468   YY=   361.1171   ZY=     3.9183
   XZ=  -123.1635   YZ=   -55.1867   ZZ=   331.4166
   Eigenvalues:   119.2693   356.7740   377.3887
     25  C    Isotropic =   197.4401   Anisotropy =    57.8745
   XX=   222.9521   YX=    23.5100   ZX=     4.6636
   XY=    23.9713   YY=   190.3973   ZY=     3.5024
   XZ=     4.8171   YZ=     2.8308   ZZ=   178.9711
   Eigenvalues:   177.5051   178.7922   236.0232
     26  C    Isotropic =   209.9298   Anisotropy =    40.5878
   XX=   200.2134   YX=     0.0469   ZX=    -1.0636
   XY=     2.7178   YY=   199.5240   ZY=   -16.4017
   XZ=    -1.3901   YZ=   -15.6291   ZZ=   230.0521
   Eigenvalues:   192.5818   200.2193   236.9884
     27  C    Isotropic =   206.3064   Anisotropy =    17.6035
   XX=   217.1988   YX=    -0.6402   ZX=    -5.1466
   XY=    -1.7270   YY=   199.2455   ZY=     5.9976
   XZ=    -0.7038   YZ=     5.0628   ZZ=   202.4748
   Eigenvalues:   195.0685   205.8086   218.0420
     28  C    Isotropic =   119.3564   Anisotropy =   158.3298
   XX=    63.4988   YX=    -2.8490   ZX=   -56.9566
   XY=    -0.4194   YY=   100.5238   ZY=   -41.6434
   XZ=   -48.9769   YZ=   -41.3257   ZZ=   194.0465
   Eigenvalues:    40.1284    93.0312   224.9096
     29  C    Isotropic =   124.0056   Anisotropy =   153.7888
   XX=    85.6076   YX=    50.4849   ZX=   -37.1938
   XY=    54.6198   YY=    86.5203   ZY=   -28.9583
   XZ=   -30.8416   YZ=   -39.8904   ZZ=   199.8889
   Eigenvalues:    33.5096   111.9758   226.5315
     30  C    Isotropic =   118.6271   Anisotropy =   149.7638
   XX=   118.5524   YX=    -4.1831   ZX=   -36.2325
   XY=    -3.6155   YY=    50.0917   ZY=   -58.9963
   XZ=   -36.9310   YZ=   -53.4215   ZZ=   187.2372
   Eigenvalues:    27.0081   110.4036   218.4696
     31  C    Isotropic =   133.6228   Anisotropy =   142.1464
   XX=    96.0473   YX=    48.6341   ZX=   -27.4976
   XY=    40.3339   YY=    98.4217   ZY=   -31.7144
   XZ=   -30.1781   YZ=   -33.8956   ZZ=   206.3994
   Eigenvalues:    52.6973   119.7840   228.3870
     32  C    Isotropic =   109.1579   Anisotropy =   125.8644
   XX=    56.7443   YX=    -1.4533   ZX=   -40.4480
   XY=     5.9985   YY=   105.1138   ZY=   -29.0762
   XZ=   -38.6253   YZ=   -44.5824   ZZ=   165.6155
   Eigenvalues:    42.3115    92.0946   193.0675
     33  C    Isotropic =   121.3453   Anisotropy =   133.8898
   XX=   114.0233   YX=     9.1807   ZX=   -33.8038
   XY=     4.2738   YY=    70.8344   ZY=   -55.2090
   XZ=   -37.8782   YZ=   -40.2987   ZZ=   179.1780
   Eigenvalues:    52.0261   101.4045   210.6052
     34  N    Isotropic =   274.2627   Anisotropy =    81.4392
   XX=   294.5195   YX=    30.1834   ZX=     5.7538
   XY=    46.1674   YY=   280.6414   ZY=     2.9252
   XZ=    20.3077   YZ=     7.1868   ZZ=   247.6272
   Eigenvalues:   242.4062   251.8264   328.5555
     35  C    Isotropic =   197.7049   Anisotropy =    16.3100
   XX=   206.0784   YX=    -4.5753   ZX=     2.0752
   XY=    -6.8551   YY=   195.1353   ZY=    -4.7284
   XZ=    -5.3708   YZ=     2.0422   ZZ=   191.9010
   Eigenvalues:   190.3416   194.1948   208.5782
     36  C    Isotropic =   180.7326   Anisotropy =    45.0265
   XX=   184.2380   YX=   -13.0885   ZX=     9.1519
   XY=    -8.9447   YY=   206.1060   ZY=    10.9752
   XZ=    -1.0288   YZ=    -3.6606   ZZ=   151.8538
   Eigenvalues:   150.8750   180.5724   210.7503
     37  C    Isotropic =   175.8823   Anisotropy =    57.7709
   XX=   187.0987   YX=   -19.4315   ZX=   -22.0616
   XY=   -19.6031   YY=   158.0313   ZY=     9.1657
   XZ=   -23.0709   YZ=     5.9297   ZZ=   182.5169
   Eigenvalues:   147.7440   165.5067   214.3962
     38  C    Isotropic =   213.5413   Anisotropy =    18.8641
   XX=   206.4590   YX=     0.6271   ZX=    -3.4438
   XY=    -2.2320   YY=   212.5368   ZY=    -9.2127
   XZ=    -7.6189   YZ=    -3.8459   ZZ=   221.6281
   Eigenvalues:   203.5742   210.9323   226.1174
     39  C    Isotropic =   211.9127   Anisotropy =    22.5278
   XX=   208.9987   YX=    -6.1107   ZX=    -9.5562
   XY=    -7.4822   YY=   208.9628   ZY=     5.8362
   XZ=    -9.0590   YZ=     3.4246   ZZ=   217.7766
   Eigenvalues:   201.1041   207.7028   226.9313
     40  C    Isotropic =   211.0373   Anisotropy =     8.9884
   XX=   208.6613   YX=     1.0402   ZX=    -0.2581
   XY=    -0.1083   YY=   215.9729   ZY=    -2.8000
   XZ=    -0.3442   YZ=    -3.1005   ZZ=   208.4777
   Eigenvalues:   207.4411   208.6413   217.0295
     41  N    Isotropic =   227.5019   Anisotropy =    57.7104
   XX=   254.2720   YX=   -20.2394   ZX=     2.8124
   XY=   -20.9812   YY=   201.2286   ZY=   -23.3437
   XZ=     7.4492   YZ=   -23.2305   ZZ=   227.0049
   Eigenvalues:   184.0406   232.4895   265.9754
     42  C    Isotropic =   196.7282   Anisotropy =    47.1667
   XX=   185.1697   YX=    11.6249   ZX=     0.1326
   XY=    16.0113   YY=   211.6506   ZY=    21.9730
   XZ=    -2.0357   YZ=    19.6408   ZZ=   193.3642
   Eigenvalues:   172.8204   189.1915   228.1726
     43  C    Isotropic =   221.7435   Anisotropy =    10.5029
   XX=   217.5446   YX=     0.1562   ZX=    -9.5072
   XY=    -1.5114   YY=   227.4531   ZY=    -0.5386
   XZ=   -10.0085   YZ=    -0.8846   ZZ=   220.2329
   Eigenvalues:   208.9869   227.4982   228.7454
     44  C    Isotropic =   217.8101   Anisotropy =    20.6173
   XX=   214.6359   YX=    -6.4111   ZX=    -2.3640
   XY=   -10.9775   YY=   227.0515   ZY=    -1.9133
   XZ=    -2.4464   YZ=     1.1088   ZZ=   211.7429
   Eigenvalues:   208.4899   213.3854   231.5550
     45  C    Isotropic =   214.1997   Anisotropy =    27.9445
   XX=   215.1899   YX=   -15.1640   ZX=   -15.2058
   XY=    -5.3150   YY=   205.6015   ZY=    -5.2412
   XZ=   -12.6606   YZ=    -9.7678   ZZ=   221.8077
   Eigenvalues:   192.1807   217.5890   232.8294
     46  C    Isotropic =   187.3503   Anisotropy =    58.9112
   XX=   178.3817   YX=     1.6508   ZX=    -9.8837
   XY=    12.6471   YY=   201.1737   ZY=   -31.3121
   XZ=    -0.0216   YZ=   -32.4570   ZZ=   182.4957
   Eigenvalues:   158.6050   176.8215   226.6245
     47  C    Isotropic =   212.1518   Anisotropy =    23.5826
   XX=   211.0006   YX=    -4.4527   ZX=    13.0851
   XY=    -5.6178   YY=   214.3748   ZY=    -5.0340
   XZ=    13.1620   YZ=    -4.9106   ZZ=   211.0800
   Eigenvalues:   197.9164   210.6654   227.8735
     48  C    Isotropic =   208.4724   Anisotropy =    10.4981
   XX=   204.0670   YX=     3.8058   ZX=     3.8070
   XY=     5.1970   YY=   208.5944   ZY=     1.5804
   XZ=     7.3201   YZ=    -5.8178   ZZ=   212.7558
   Eigenvalues:   198.8206   211.1255   215.4712
     49  C    Isotropic =    96.1204   Anisotropy =    97.8137
   XX=   111.1263   YX=    62.9678   ZX=   -55.8899
   XY=    60.5169   YY=    74.8321   ZY=    79.3188
   XZ=   -41.5846   YZ=    62.7116   ZZ=   102.4029
   Eigenvalues:   -28.1375   155.1692   161.3296
     50  O    Isotropic =  -131.0778   Anisotropy =   882.2072
   XX=   112.2620   YX=   416.7088   ZX=   108.8947
   XY=   419.8322   YY=   -56.5392   ZY=   -66.7184
   XZ=   133.1172   YZ=   -80.5092   ZZ=  -448.9561
   Eigenvalues:  -561.1256  -289.1681   457.0604
     51  O    Isotropic =   282.7311   Anisotropy =   139.1727
   XX=   365.9324   YX=   -11.7419   ZX=    37.3641
   XY=    -5.2696   YY=   364.2413   ZY=   -33.9827
   XZ=   -40.9533   YZ=    92.6539   ZZ=   118.0195
   Eigenvalues:   114.5701   358.1102   375.5128
     52  C    Isotropic =   197.2366   Anisotropy =    57.7500
   XX=   182.1968   YX=    -5.6889   ZX=    12.5667
   XY=    -5.2337   YY=   187.4160   ZY=   -21.4420
   XZ=    12.9761   YZ=   -20.9397   ZZ=   222.0971
   Eigenvalues:   177.1860   178.7873   235.7367
     53  C    Isotropic =   209.5277   Anisotropy =    42.4047
   XX=   226.3745   YX=   -16.1066   ZX=    -9.0042
   XY=   -17.6190   YY=   200.8878   ZY=     4.7472
   XZ=    -8.6109   YZ=     7.0230   ZZ=   201.3207
   Eigenvalues:   192.2172   198.5684   237.7975
     54  O    Isotropic =    32.3487   Anisotropy =   453.0577
   XX=   202.2274   YX=   -79.2694   ZX=   182.3661
   XY=   -81.5293   YY=  -121.0919   ZY=   -34.5858
   XZ=   190.5898   YZ=   -38.5653   ZZ=    15.9107
   Eigenvalues:  -140.8496   -96.4914   334.3872
     55  H    Isotropic =    25.1979   Anisotropy =    12.7751
   XX=    28.4194   YX=    -5.4720   ZX=    -3.0373
   XY=    -5.6307   YY=    24.7825   ZY=     2.6565
   XZ=    -2.9538   YZ=     2.0111   ZZ=    22.3920
   Eigenvalues:    20.7201    21.1591    33.7147
     56  H    Isotropic =    26.1094   Anisotropy =     6.9901
   XX=    26.1407   YX=     0.1693   ZX=    -3.7398
   XY=     0.1691   YY=    27.4253   ZY=    -1.5526
   XZ=    -5.3204   YZ=    -2.7001   ZZ=    24.7623
   Eigenvalues:    20.5301    27.0287    30.7695
     57  H    Isotropic =    26.7426   Anisotropy =     7.6778
   XX=    25.9090   YX=    -3.3242   ZX=    -3.7234
   XY=    -2.9219   YY=    30.0084   ZY=    -1.2971
   XZ=    -4.2279   YZ=    -0.8279   ZZ=    24.3103
   Eigenvalues:    20.2239    28.1427    31.8611
     58  H    Isotropic =    30.7833   Anisotropy =    13.6078
   XX=    39.5843   YX=    -0.0025   ZX=    -2.4051
   XY=    -2.1440   YY=    27.1687   ZY=    -0.7857
   XZ=    -0.8163   YZ=     0.5896   ZZ=    25.5970
   Eigenvalues:    25.3859    27.1089    39.8552
     59  H    Isotropic =    32.3199   Anisotropy =    11.9187
   XX=    27.2554   YX=     2.4821   ZX=     2.5307
   XY=     1.5340   YY=    29.8915   ZY=    -1.7083
   XZ=     0.8323   YZ=    -1.8901   ZZ=    39.8129
   Eigenvalues:    25.7799    30.9142    40.2658
     60  H    Isotropic =    33.0268   Anisotropy =    11.7362
   XX=    40.4196   YX=    -0.8680   ZX=     2.7370
   XY=    -2.9189   YY=    31.9582   ZY=     0.9589
   XZ=    -0.7875   YZ=     2.3263   ZZ=    26.7025
   Eigenvalues:    26.0789    32.1505    40.8509
     61  H    Isotropic =    32.4706   Anisotropy =    13.4388
   XX=    28.1189   YX=     0.6325   ZX=     1.4745
   XY=     0.6834   YY=    32.4929   ZY=     6.0178
   XZ=     1.2037   YZ=     6.5030   ZZ=    36.8000
   Eigenvalues:    27.7477    28.2342    41.4298
     62  H    Isotropic =    31.7858   Anisotropy =    19.0823
   XX=    43.7339   YX=     4.1025   ZX=     0.6506
   XY=     3.0982   YY=    27.6034   ZY=    -0.6478
   XZ=     0.1937   YZ=     0.1297   ZZ=    24.0202
   Eigenvalues:    23.9732    26.8769    44.5073
     63  H    Isotropic =    31.5613   Anisotropy =    13.8525
   XX=    34.8975   YX=     2.7247   ZX=    -5.6691
   XY=     3.6100   YY=    29.1462   ZY=    -4.0575
   XZ=    -5.7474   YZ=    -3.3903   ZZ=    30.6404
   Eigenvalues:    25.7502    28.1374    40.7964
     64  H    Isotropic =    31.8145   Anisotropy =    15.8939
   XX=    27.1290   YX=    -1.2105   ZX=     5.5607
   XY=    -1.1261   YY=    29.7415   ZY=    -4.9254
   XZ=     5.0374   YZ=    -4.2957   ZZ=    38.5731
   Eigenvalues:    24.9475    28.0857    42.4104
     65  H    Isotropic =    32.6176   Anisotropy =    17.4837
   XX=    26.3519   YX=     0.4345   ZX=     0.5593
   XY=    -0.0498   YY=    42.3746   ZY=    -5.2672
   XZ=     0.6947   YZ=    -5.4586   ZZ=    29.1263
   Eigenvalues:    26.0016    27.5778    44.2734
     66  H    Isotropic =    32.5466   Anisotropy =    11.9567
   XX=    39.0441   YX=    -3.8539   ZX=     0.0607
   XY=    -3.5905   YY=    30.9011   ZY=    -1.8143
   XZ=    -0.1153   YZ=    -1.6443   ZZ=    27.6948
   Eigenvalues:    26.7104    30.4118    40.5178
     67  H    Isotropic =    32.1778   Anisotropy =    14.0044
   XX=    39.1878   YX=     4.8601   ZX=     0.9617
   XY=     4.8089   YY=    31.4668   ZY=    -2.0400
   XZ=     0.9319   YZ=    -1.9391   ZZ=    25.8788
   Eigenvalues:    24.7684    30.2509    41.5140
     68  H    Isotropic =    32.5200   Anisotropy =    13.8489
   XX=    26.8636   YX=    -2.0557   ZX=    -1.0712
   XY=    -1.5612   YY=    38.1137   ZY=     5.2832
   XZ=    -0.7803   YZ=     5.6557   ZZ=    32.5826
   Eigenvalues:    26.5787    29.2286    41.7526
     69  H    Isotropic =    32.9031   Anisotropy =    11.6249
   XX=    37.8360   YX=     4.9517   ZX=    -1.4249
   XY=     5.5608   YY=    29.3952   ZY=    -0.1041
   XZ=    -1.3990   YZ=    -1.6359   ZZ=    31.4781
   Eigenvalues:    26.8678    31.1884    40.6530
     70  H    Isotropic =    32.2574   Anisotropy =    11.8236
   XX=    28.9417   YX=    -3.4949   ZX=     2.6588
   XY=    -1.1556   YY=    33.7651   ZY=     7.6124
   XZ=     2.7603   YZ=     4.8137   ZZ=    34.0654
   Eigenvalues:    24.7081    31.9243    40.1398
     71  H    Isotropic =    31.8143   Anisotropy =    16.5417
   XX=    29.5384   YX=     1.3302   ZX=     8.3010
   XY=     1.3103   YY=    27.4931   ZY=     1.4989
   XZ=     6.8113   YZ=    -0.0898   ZZ=    38.4114
   Eigenvalues:    24.9540    27.6468    42.8421
     72  H    Isotropic =    31.8932   Anisotropy =     9.8702
   XX=    37.5558   YX=    -3.2018   ZX=     0.4646
   XY=    -2.5758   YY=    29.1410   ZY=     0.4864
   XZ=     0.4175   YZ=    -0.6736   ZZ=    28.9827
   Eigenvalues:    28.2424    28.9639    38.4733
     73  H    Isotropic =    32.2207   Anisotropy =    14.3143
   XX=    28.9952   YX=    -3.1997   ZX=    -5.0713
   XY=    -2.4655   YY=    35.0324   ZY=     5.1502
   XZ=    -4.9626   YZ=     5.8423   ZZ=    32.6344
   Eigenvalues:    25.3652    29.5333    41.7635
     74  H    Isotropic =    31.3285   Anisotropy =    10.4918
   XX=    35.9907   YX=    -3.2981   ZX=     2.8672
   XY=    -1.9784   YY=    28.6814   ZY=    -3.4659
   XZ=     2.5012   YZ=    -3.0179   ZZ=    29.3134
   Eigenvalues:    25.7374    29.9251    38.3231
     75  H    Isotropic =    31.2273   Anisotropy =    11.9113
   XX=    28.2131   YX=     0.4316   ZX=    -4.1131
   XY=     1.2966   YY=    27.7149   ZY=     0.7281
   XZ=    -3.7479   YZ=    -0.5426   ZZ=    37.7538
   Eigenvalues:    26.2978    28.2159    39.1681
     76  H    Isotropic =    30.6288   Anisotropy =     8.1036
   XX=    31.0263   YX=     3.3155   ZX=     1.0640
   XY=     3.7772   YY=    29.0458   ZY=     2.7537
   XZ=     1.6014   YZ=     3.6699   ZZ=    31.8143
   Eigenvalues:    25.7337    30.1215    36.0312
     77  H    Isotropic =    30.5704   Anisotropy =    12.0809
   XX=    30.3614   YX=     3.9354   ZX=    -2.6439
   XY=     3.6408   YY=    32.6526   ZY=    -5.4375
   XZ=    -1.9788   YZ=    -4.9817   ZZ=    28.6972
   Eigenvalues:    25.0849    28.0020    38.6243
     78  H    Isotropic =    30.5732   Anisotropy =    11.8812
   XX=    37.4311   YX=    -2.0858   ZX=    -2.9679
   XY=    -2.3593   YY=    28.1855   ZY=     0.3307
   XZ=    -2.3843   YZ=    -0.2066   ZZ=    26.1030
   Eigenvalues:    25.4265    27.7992    38.4940
     79  H    Isotropic =    32.0484   Anisotropy =    10.4065
   XX=    33.0319   YX=    -0.6331   ZX=     5.5402
   XY=    -0.9185   YY=    28.8244   ZY=    -2.9847
   XZ=     3.2038   YZ=    -3.6112   ZZ=    34.2891
   Eigenvalues:    26.9408    30.2183    38.9861
     80  H    Isotropic =    30.8246   Anisotropy =    14.7014
   XX=    27.1718   YX=     2.4536   ZX=    -2.3544
   XY=     2.4875   YY=    37.4189   ZY=    -5.2010
   XZ=    -3.4073   YZ=    -5.2963   ZZ=    27.8831
   Eigenvalues:    24.2970    27.5512    40.6256
     81  H    Isotropic =    30.9322   Anisotropy =    10.7886
   XX=    30.0435   YX=    -2.4138   ZX=    -4.6426
   XY=    -2.2464   YY=    28.2435   ZY=    -1.7925
   XZ=    -6.1648   YZ=    -1.5746   ZZ=    34.5095
   Eigenvalues:    24.3237    30.3482    38.1246
     82  H    Isotropic =    29.8330   Anisotropy =    12.6981
   XX=    27.9029   YX=    -0.2303   ZX=    -0.0051
   XY=    -1.6052   YY=    35.8783   ZY=     5.2888
   XZ=    -1.8593   YZ=     5.3598   ZZ=    25.7178
   Eigenvalues:    23.3832    27.8174    38.2984
     83  H    Isotropic =    29.9734   Anisotropy =     8.3646
   XX=    27.6042   YX=    -1.9501   ZX=     0.3935
   XY=    -3.1506   YY=    27.8521   ZY=    -1.6597
   XZ=     2.6602   YZ=    -2.0300   ZZ=    34.4638
   Eigenvalues:    25.1714    29.1990    35.5498
     84  H    Isotropic =    25.8438   Anisotropy =    15.5915
   XX=    31.9571   YX=     4.5342   ZX=     1.7092
   XY=     4.8215   YY=    26.1977   ZY=     4.1804
   XZ=     4.8336   YZ=     5.4977   ZZ=    19.3767
   Eigenvalues:    16.8218    24.4716    36.2382
     85  H    Isotropic =    25.5687   Anisotropy =     6.6934
   XX=    29.0503   YX=    -2.1513   ZX=     1.0551
   XY=    -1.5544   YY=    26.4990   ZY=     1.9315
   XZ=     1.4160   YZ=     1.7835   ZZ=    21.1567
   Eigenvalues:    20.2226    26.4524    30.0310
     86  H    Isotropic =    26.5084   Anisotropy =     7.8936
   XX=    28.0747   YX=     0.7614   ZX=     1.9847
   XY=     0.5179   YY=    30.3633   ZY=     3.1192
   XZ=     2.3738   YZ=     3.1086   ZZ=    21.0871
   Eigenvalues:    19.7014    28.0530    31.7707
     87  H    Isotropic =    30.5667   Anisotropy =     6.7206
   XX=    32.4949   YX=     1.0930   ZX=     1.4463
   XY=     0.8889   YY=    27.9327   ZY=     1.5272
   XZ=     4.4458   YZ=    -0.6423   ZZ=    31.2724
   Eigenvalues:    27.7113    28.9417    35.0471
     88  H    Isotropic =    32.1049   Anisotropy =    14.2178
   XX=    37.0629   YX=    -3.2609   ZX=    -6.4741
   XY=    -2.6722   YY=    30.2434   ZY=    -0.3581
   XZ=    -7.6388   YZ=    -1.2469   ZZ=    29.0085
   Eigenvalues:    24.0987    30.6326    41.5835
     89  H    Isotropic =    32.7692   Anisotropy =     8.3570
   XX=    28.8582   YX=     2.7037   ZX=     1.7297
   XY=     2.4332   YY=    32.6351   ZY=     3.8451
   XZ=    -0.6098   YZ=     1.3217   ZZ=    36.8143
   Eigenvalues:    27.5051    32.4620    38.3406
     90  H    Isotropic =    32.2732   Anisotropy =    13.1536
   XX=    28.0039   YX=    -1.4681   ZX=     2.0234
   XY=    -1.6827   YY=    29.3286   ZY=    -2.9098
   XZ=     1.9936   YZ=    -4.1827   ZZ=    39.4870
   Eigenvalues:    26.9464    28.8309    41.0422
     91  H    Isotropic =    32.1561   Anisotropy =    15.5399
   XX=    35.6772   YX=     5.2992   ZX=    -6.0147
   XY=     4.8696   YY=    31.9633   ZY=    -3.0892
   XZ=    -5.8874   YZ=    -3.2453   ZZ=    28.8278
   Eigenvalues:    25.3767    28.5756    42.5160
     92  H    Isotropic =    30.9795   Anisotropy =    12.7687
   XX=    34.4632   YX=    -1.3844   ZX=    -5.3494
   XY=    -2.4341   YY=    30.3877   ZY=     3.2836
   XZ=    -6.5600   YZ=     4.2742   ZZ=    28.0878
   Eigenvalues:    23.6474    29.7992    39.4920
     93  H    Isotropic =    31.8634   Anisotropy =     7.1796
   XX=    30.7725   YX=    -0.7429   ZX=     3.1720
   XY=     0.1026   YY=    30.3591   ZY=     2.0613
   XZ=     3.1037   YZ=     1.8787   ZZ=    34.4585
   Eigenvalues:    28.1507    30.7898    36.6498
     94  H    Isotropic =    31.2585   Anisotropy =    15.3476
   XX=    33.7888   YX=    -6.3969   ZX=     1.3709
   XY=    -6.8338   YY=    34.2446   ZY=    -3.8782
   XZ=     1.6299   YZ=    -3.3747   ZZ=    25.7422
   Eigenvalues:    24.2654    28.0200    41.4903
     95  H    Isotropic =    32.2164   Anisotropy =    16.1021
   XX=    28.5239   YX=     4.1645   ZX=     0.8978
   XY=     3.6724   YY=    37.7406   ZY=     6.3993
   XZ=     1.2026   YZ=     7.4227   ZZ=    30.3847
   Eigenvalues:    25.6051    28.0930    42.9511
     96  H    Isotropic =    31.9249   Anisotropy =    12.8518
   XX=    28.6926   YX=    -3.1892   ZX=     2.7670
   XY=    -3.5230   YY=    30.7411   ZY=    -4.5835
   XZ=     3.0160   YZ=    -4.7794   ZZ=    36.3408
   Eigenvalues:    26.1719    29.1099    40.4927
     97  H    Isotropic =    32.2916   Anisotropy =    15.3298
   XX=    33.4478   YX=     6.3289   ZX=    -2.9517
   XY=     5.5351   YY=    37.8786   ZY=    -1.8880
   XZ=    -2.5424   YZ=    -1.4742   ZZ=    25.5482
   Eigenvalues:    24.6837    29.6795    42.5114
     98  H    Isotropic =    33.3092   Anisotropy =    10.1381
   XX=    30.6602   YX=    -0.0567   ZX=    -1.9982
   XY=     1.1814   YY=    35.7921   ZY=    -6.1542
   XZ=    -0.5712   YZ=    -4.1273   ZZ=    33.4752
   Eigenvalues:    29.0702    30.7894    40.0679
     99  H    Isotropic =    32.7689   Anisotropy =    11.4128
   XX=    35.8473   YX=    -0.7628   ZX=     4.3833
   XY=     2.6680   YY=    26.9798   ZY=     2.4232
   XZ=     4.0385   YZ=     3.0116   ZZ=    35.4798
   Eigenvalues:    26.1762    31.7532    40.3774
    100  H    Isotropic =    31.5725   Anisotropy =    11.1639
   XX=    33.6844   YX=    -0.4573   ZX=    -4.7341
   XY=     0.6610   YY=    27.3218   ZY=    -0.4903
   XZ=    -5.8703   YZ=     1.8784   ZZ=    33.7112
   Eigenvalues:    27.0688    28.6336    39.0151
    101  H    Isotropic =    31.1855   Anisotropy =    17.6638
   XX=    40.7372   YX=     4.0386   ZX=     0.9805
   XY=     6.6797   YY=    29.1247   ZY=     2.4526
   XZ=    -0.1434   YZ=     3.9501   ZZ=    23.6945
   Eigenvalues:    21.9901    28.6050    42.9613
    102  H    Isotropic =    31.5963   Anisotropy =     8.7369
   XX=    30.3109   YX=    -1.9969   ZX=     0.1773
   XY=    -2.5239   YY=    28.9966   ZY=     3.4112
   XZ=     0.2059   YZ=     4.4323   ZZ=    35.4813
   Eigenvalues:    26.0699    31.2981    37.4209
    103  H    Isotropic =    32.0874   Anisotropy =    15.1468
   XX=    36.1211   YX=     6.8725   ZX=     1.7278
   XY=     5.9138   YY=    35.1068   ZY=    -0.0839
   XZ=     2.3671   YZ=     0.4878   ZZ=    25.0343
   Eigenvalues:    24.5491    29.5277    42.1853
    104  H    Isotropic =    31.1916   Anisotropy =    12.8821
   XX=    39.7100   YX=    -0.6390   ZX=    -1.3292
   XY=     0.2555   YY=    27.7293   ZY=    -1.5737
   XZ=    -0.6023   YZ=    -0.3511   ZZ=    26.1354
   Eigenvalues:    25.6180    28.1772    39.7796
    105  H    Isotropic =    30.5813   Anisotropy =    11.7829
   XX=    30.1860   YX=     0.9901   ZX=     5.5281
   XY=     1.6942   YY=    28.4012   ZY=     2.3878
   XZ=     6.2157   YZ=     2.2772   ZZ=    33.1565
   Eigenvalues:    25.5527    27.7545    38.4366
    106  H    Isotropic =    30.5164   Anisotropy =    12.1045
   XX=    30.7608   YX=    -5.9951   ZX=     2.0881
   XY=    -6.1383   YY=    32.5033   ZY=    -1.3681
   XZ=     2.9727   YZ=    -1.9419   ZZ=    28.2850
   Eigenvalues:    25.2165    27.7465    38.5860
    107  H    Isotropic =    30.6685   Anisotropy =     7.6037
   XX=    31.3618   YX=     1.9304   ZX=    -1.7276
   XY=     1.0711   YY=    28.3438   ZY=    -4.0986
   XZ=    -0.9095   YZ=    -4.1435   ZZ=    32.3000
   Eigenvalues:    25.6895    30.5784    35.7377
    108  H    Isotropic =    30.8949   Anisotropy =    11.0146
   XX=    38.0252   YX=    -0.4759   ZX=     2.1413
   XY=    -0.6892   YY=    28.8485   ZY=     2.7146
   XZ=     1.0633   YZ=     2.7076   ZZ=    25.8110
   Eigenvalues:    24.0212    30.4255    38.2380
    109  H    Isotropic =    30.6760   Anisotropy =    14.5280
   XX=    30.0089   YX=    -5.4891   ZX=     2.0284
   XY=    -5.2087   YY=    37.3224   ZY=    -1.1499
   XZ=     1.3701   YZ=    -1.2093   ZZ=    24.6966
   Eigenvalues:    24.1833    27.4833    40.3613
    110  H    Isotropic =    31.8678   Anisotropy =    11.9121
   XX=    31.0578   YX=    -3.2401   ZX=    -3.5620
   XY=    -2.5116   YY=    29.4302   ZY=     3.3715
   XZ=    -5.4114   YZ=     3.1835   ZZ=    35.1154
   Eigenvalues:    27.2521    28.5421    39.8092
 End of Minotr F.D. properties file   721 does not exist.
 End of Minotr F.D. properties file   722 does not exist.
 End of Minotr F.D. properties file   788 does not exist.
 Hyperfine terms turned off by default for NAtoms > 100.

 **********************************************************************

            Population analysis using the SCF Density.

 **********************************************************************

 Orbital symmetries:
       Occupied  (A) (A) (A) (A) (A) (A) (A) (A) (A) (A) (A) (A)
                 (A) (A) (A) (A) (A) (A) (A) (A) (A) (A) (A) (A)
                 (A) (A) (A) (A) (A) (A) (A) (A) (A) (A) (A) (A)
                 (A) (A) (A) (A) (A) (A) (A) (A) (A) (A) (A) (A)
                 (A) (A) (A) (A) (A) (A) (A) (A) (A) (A) (A) (A)
                 (A) (A) (A) (A) (A) (A) (A) (A) (A) (A) (A) (A)
                 (A) (A) (A) (A) (A) (A) (A) (A) (A) (A) (A) (A)
                 (A) (A) (A) (A) (A) (A) (A) (A) (A) (A) (A) (A)
                 (A) (A) (A) (A) (A) (A) (A) (A) (A) (A) (A) (A)
                 (A) (A) (A) (A) (A) (A) (A) (A) (A) (A) (A) (A)
                 (A) (A) (A) (A) (A) (A) (A) (A) (A) (A) (A) (A)
                 (A) (A) (A) (A) (A) (A) (A) (A) (A) (A) (A) (A)
                 (A) (A) (A) (A) (A) (A) (A) (A) (A) (A) (A) (A)
                 (A) (A) (A) (A) (A) (A) (A) (A) (A) (A) (A) (A)
                 (A) (A) (A) (A) (A) (A) (A) (A) (A) (A) (A) (A)
                 (A) (A) (A) (A) (A) (A) (A) (A) (A) (A) (A) (A)
                 (A) (A) (A) (A) (A)
       Virtual   (A) (A) (A) (A) (A) (A) (A) (A) (A) (A) (A) (A)
                 (A) (A) (A) (A) (A) (A) (A) (A) (A) (A) (A) (A)
                 (A) (A) (A) (A) (A) (A) (A) (A) (A) (A) (A) (A)
                 (A) (A) (A) (A) (A) (A) (A) (A) (A) (A) (A) (A)
                 (A) (A) (A) (A) (A) (A) (A) (A) (A) (A) (A) (A)
                 (A) (A) (A) (A) (A) (A) (A) (A) (A) (A) (A) (A)
                 (A) (A) (A) (A) (A) (A) (A) (A) (A) (A) (A) (A)
                 (A) (A) (A) (A) (A) (A) (A) (A) (A) (A) (A) (A)
                 (A) (A) (A) (A) (A) (A) (A) (A) (A) (A) (A) (A)
                 (A) (A) (A) (A) (A) (A) (A) (A) (A) (A) (A) (A)
                 (A) (A) (A) (A) (A) (A) (A) (A) (A)
 The electronic state is 1-A.
 Alpha  occ. eigenvalues --  -20.31385 -20.29839 -20.25380 -20.23759 -19.92046
 Alpha  occ. eigenvalues --  -15.48498 -15.34203 -15.32647 -15.28950 -11.17402
 Alpha  occ. eigenvalues --  -11.15645 -11.11131 -11.10458 -11.09907 -11.09533
 Alpha  occ. eigenvalues --  -11.08933 -11.08728 -11.08371 -11.08280 -11.07393
 Alpha  occ. eigenvalues --  -11.07386 -11.07297 -11.07213 -11.06017 -11.05805
 Alpha  occ. eigenvalues --  -11.05721 -11.05605 -11.05384 -11.05286 -11.05232
 Alpha  occ. eigenvalues --  -11.05121 -11.05055 -11.04873 -11.04762 -11.04707
 Alpha  occ. eigenvalues --  -11.04411 -11.03968 -11.03716 -11.03112 -11.02688
 Alpha  occ. eigenvalues --  -11.02541 -11.02440 -11.02407 -11.02184 -11.02090
 Alpha  occ. eigenvalues --  -11.01991 -11.01974 -11.01936 -11.01588 -11.01229
 Alpha  occ. eigenvalues --  -11.00991 -11.00842 -11.00585 -11.00539  -1.38606
 Alpha  occ. eigenvalues --   -1.37055  -1.28463  -1.28320  -1.26827  -1.21653
 Alpha  occ. eigenvalues --   -1.20331  -1.17416  -1.12112  -1.09094  -1.08248
 Alpha  occ. eigenvalues --   -1.07215  -1.06238  -1.03858  -1.03495  -1.00813
 Alpha  occ. eigenvalues --   -0.99866  -0.98715  -0.97899  -0.97201  -0.96837
 Alpha  occ. eigenvalues --   -0.95525  -0.94527  -0.93672  -0.93126  -0.92633
 Alpha  occ. eigenvalues --   -0.92303  -0.90818  -0.90695  -0.89280  -0.87892
 Alpha  occ. eigenvalues --   -0.86441  -0.84291  -0.82629  -0.82336  -0.80842
 Alpha  occ. eigenvalues --   -0.80650  -0.79328  -0.78650  -0.78117  -0.76382
 Alpha  occ. eigenvalues --   -0.76050  -0.74898  -0.73203  -0.72943  -0.71863
 Alpha  occ. eigenvalues --   -0.70677  -0.69661  -0.69150  -0.68259  -0.66677
 Alpha  occ. eigenvalues --   -0.65570  -0.64842  -0.64740  -0.63991  -0.63658
 Alpha  occ. eigenvalues --   -0.62487  -0.61938  -0.61890  -0.61230  -0.60925
 Alpha  occ. eigenvalues --   -0.60021  -0.59706  -0.59658  -0.58817  -0.58628
 Alpha  occ. eigenvalues --   -0.58533  -0.58005  -0.57598  -0.57281  -0.56991
 Alpha  occ. eigenvalues --   -0.56898  -0.56392  -0.55898  -0.55820  -0.55510
 Alpha  occ. eigenvalues --   -0.55334  -0.55028  -0.54606  -0.53956  -0.53776
 Alpha  occ. eigenvalues --   -0.53425  -0.53071  -0.52498  -0.52399  -0.51914
 Alpha  occ. eigenvalues --   -0.51596  -0.51433  -0.50770  -0.50698  -0.50163
 Alpha  occ. eigenvalues --   -0.49852  -0.49706  -0.49402  -0.49048  -0.48568
 Alpha  occ. eigenvalues --   -0.48363  -0.47994  -0.47781  -0.47465  -0.47030
 Alpha  occ. eigenvalues --   -0.46758  -0.46625  -0.46083  -0.45396  -0.44996
 Alpha  occ. eigenvalues --   -0.44845  -0.44505  -0.44222  -0.44075  -0.43441
 Alpha  occ. eigenvalues --   -0.43055  -0.42893  -0.42615  -0.42495  -0.42203
 Alpha  occ. eigenvalues --   -0.41890  -0.41679  -0.41374  -0.40993  -0.40645
 Alpha  occ. eigenvalues --   -0.40161  -0.39510  -0.39410  -0.39185  -0.37940
 Alpha  occ. eigenvalues --   -0.37055  -0.36303  -0.35968  -0.35198  -0.34817
 Alpha  occ. eigenvalues --   -0.34004  -0.33341  -0.32700  -0.32524  -0.31189
 Alpha  occ. eigenvalues --   -0.27295  -0.26169  -0.24661  -0.21506  -0.19896
 Alpha  occ. eigenvalues --   -0.15673  -0.15413
 Alpha virt. eigenvalues --    0.26709   0.27523   0.28040   0.29493   0.29671
 Alpha virt. eigenvalues --    0.31318   0.46139   0.46707   0.48514   0.49555
 Alpha virt. eigenvalues --    0.49677   0.49910   0.50642   0.51346   0.52685
 Alpha virt. eigenvalues --    0.53440   0.53972   0.55301   0.55525   0.55971
 Alpha virt. eigenvalues --    0.56883   0.58065   0.58323   0.58610   0.59058
 Alpha virt. eigenvalues --    0.59146   0.59599   0.60241   0.60889   0.61315
 Alpha virt. eigenvalues --    0.61989   0.62102   0.62545   0.62656   0.63143
 Alpha virt. eigenvalues --    0.63524   0.63868   0.64082   0.64439   0.64501
 Alpha virt. eigenvalues --    0.64934   0.65063   0.65311   0.65382   0.65604
 Alpha virt. eigenvalues --    0.65942   0.66372   0.66550   0.66814   0.66927
 Alpha virt. eigenvalues --    0.67537   0.67836   0.68251   0.68767   0.68836
 Alpha virt. eigenvalues --    0.69077   0.69207   0.69450   0.69817   0.69867
 Alpha virt. eigenvalues --    0.70172   0.70248   0.70494   0.70717   0.70976
 Alpha virt. eigenvalues --    0.71358   0.71691   0.71953   0.72268   0.72679
 Alpha virt. eigenvalues --    0.73056   0.73338   0.73495   0.73864   0.74377
 Alpha virt. eigenvalues --    0.74453   0.74953   0.75151   0.75330   0.75400
 Alpha virt. eigenvalues --    0.75747   0.75914   0.76139   0.76258   0.76378
 Alpha virt. eigenvalues --    0.77011   0.77401   0.77734   0.77934   0.78145
 Alpha virt. eigenvalues --    0.78445   0.78611   0.78682   0.79304   0.79485
 Alpha virt. eigenvalues --    0.79695   0.80341   0.80564   0.80990   0.81413
 Alpha virt. eigenvalues --    0.81671   0.81838   0.81926   0.82484   0.82939
 Alpha virt. eigenvalues --    0.83492   0.84156   0.84720   0.85350   0.85742
 Alpha virt. eigenvalues --    0.85998   0.87106   0.87532   0.87918   0.87966
 Alpha virt. eigenvalues --    0.88674   0.90493   0.90880   0.92572   0.94103
 Alpha virt. eigenvalues --    0.94772   0.96068   0.98298   1.00521   1.02246
 Alpha virt. eigenvalues --    1.10814   1.12304   1.15755   1.16981
          Condensed to atoms (all electrons):
 Mulliken charges:
               1
     1  C   -0.073180
     2  C   -0.001608
     3  C   -0.063844
     4  C   -0.091061
     5  C    0.088510
     6  C   -0.010664
     7  N   -0.286371
     8  C    0.018352
     9  C    0.127383
    10  C    0.038042
    11  C   -0.114262
    12  C   -0.110154
    13  C    0.029958
    14  N   -0.291335
    15  C   -0.014386
    16  C   -0.107604
    17  C   -0.103122
    18  C   -0.104864
    19  C   -0.019079
    20  C   -0.110685
    21  C   -0.066391
    22  C    0.319258
    23  O   -0.277229
    24  O   -0.255936
    25  C   -0.055773
    26  C   -0.078951
    27  C   -0.109678
    28  C    0.002379
    29  C   -0.074642
    30  C   -0.060530
    31  C   -0.090317
    32  C    0.089474
    33  C   -0.020146
    34  N   -0.286044
    35  C    0.014278
    36  C    0.128734
    37  C    0.034037
    38  C   -0.115548
    39  C   -0.104073
    40  C    0.032586
    41  N   -0.074056
    42  C   -0.008119
    43  C   -0.101560
    44  C   -0.101892
    45  C   -0.119936
    46  C   -0.013948
    47  C   -0.111500
    48  C   -0.066077
    49  C    0.321322
    50  O   -0.279152
    51  O   -0.254369
    52  C   -0.055337
    53  C   -0.079059
    54  O   -0.457451
    55  H    0.068868
    56  H    0.054443
    57  H    0.056688
    58  H    0.074072
    59  H    0.046513
    60  H    0.052541
    61  H    0.042311
    62  H    0.068853
    63  H    0.058438
    64  H    0.057702
    65  H    0.051321
    66  H    0.047173
    67  H    0.061259
    68  H    0.046864
    69  H    0.061010
    70  H    0.061752
    71  H    0.055096
    72  H    0.050085
    73  H    0.049008
    74  H    0.066444
    75  H    0.063130
    76  H    0.074448
    77  H    0.075957
    78  H    0.071471
    79  H    0.053852
    80  H    0.070335
    81  H    0.075905
    82  H    0.057548
    83  H    0.061413
    84  H    0.076877
    85  H    0.057568
    86  H    0.058762
    87  H    0.092806
    88  H    0.053416
    89  H    0.057732
    90  H    0.057416
    91  H    0.051690
    92  H    0.086075
    93  H    0.061205
    94  H    0.075833
    95  H    0.059512
    96  H    0.064935
    97  H    0.055230
    98  H    0.072830
    99  H    0.070403
   100  H    0.073682
   101  H    0.093597
   102  H    0.065111
   103  H    0.056056
   104  H    0.066990
   105  H    0.073163
   106  H    0.078699
   107  H    0.075775
   108  H    0.076365
   109  H    0.072897
   110  H    0.056498
 Sum of Mulliken charges =  -0.00000
 Mulliken charges with hydrogens summed into heavy atoms:
               1
     1  C   -0.004312
     2  C   -0.001608
     3  C   -0.009401
     4  C   -0.034373
     5  C    0.088510
     6  C   -0.010664
     7  N   -0.286371
     8  C    0.018352
     9  C    0.127383
    10  C    0.112113
    11  C   -0.015208
    12  C    0.001010
    13  C    0.029958
    14  N   -0.291335
    15  C    0.101754
    16  C   -0.009110
    17  C    0.005001
    18  C    0.017898
    19  C    0.086102
    20  C    0.004767
    21  C   -0.003261
    22  C    0.319258
    23  O   -0.277229
    24  O   -0.255936
    25  C    0.166103
    26  C    0.121140
    27  C    0.009283
    28  C    0.002379
    29  C    0.002235
    30  C   -0.002961
    31  C   -0.031555
    32  C    0.089474
    33  C   -0.020146
    34  N   -0.286044
    35  C    0.014278
    36  C    0.128734
    37  C    0.126843
    38  C   -0.004400
    39  C    0.005033
    40  C    0.032586
    41  N   -0.074056
    42  C    0.139161
    43  C    0.033785
    44  C    0.018273
    45  C    0.023298
    46  C    0.153331
    47  C    0.009667
    48  C    0.000913
    49  C    0.321322
    50  O   -0.279152
    51  O   -0.254369
    52  C    0.172300
    53  C    0.126700
    54  O   -0.457451
 Electronic spatial extent (au):  <R**2>=          37941.0752
 Charge=             -0.0000 electrons
 Dipole moment (field-independent basis, Debye):
    X=              5.2899    Y=             -0.0893    Z=              2.6772  Tot=              5.9294
 Quadrupole moment (field-independent basis, Debye-Ang):
   XX=           -276.2015   YY=           -295.0856   ZZ=           -297.8163
   XY=              5.0722   XZ=            -11.0122   YZ=             -0.1606
 Traceless Quadrupole moment (field-independent basis, Debye-Ang):
   XX=             13.4996   YY=             -5.3844   ZZ=             -8.1152
   XY=              5.0722   XZ=            -11.0122   YZ=             -0.1606
 Octapole moment (field-independent basis, Debye-Ang**2):
  XXX=            191.3391  YYY=              8.6129  ZZZ=             43.6203  XYY=             22.9211
  XXY=            -30.3496  XXZ=             69.9643  XZZ=             -6.4144  YZZ=            -12.7926
  YYZ=             22.6326  XYZ=             -7.9051
 Hexadecapole moment (field-independent basis, Debye-Ang**3):
 XXXX=         -32701.8860 YYYY=          -8756.9574 ZZZZ=          -4608.8201 XXXY=            357.7096
 XXXZ=           -228.0426 YYYX=             30.9571 YYYZ=            -23.8190 ZZZX=             66.8646
 ZZZY=            -98.0505 XXYY=          -6876.5975 XXZZ=          -6213.4775 YYZZ=          -2201.6419
 XXYZ=           -193.6795 YYXZ=              3.1148 ZZXY=            -80.4245
 N-N= 8.146415447835D+03 E-N=-2.166992070028D+04  KE= 2.279177079954D+03
 ******************************Gaussian NBO Version 3.1******************************
             N A T U R A L   A T O M I C   O R B I T A L   A N D
          N A T U R A L   B O N D   O R B I T A L   A N A L Y S I S
 ******************************Gaussian NBO Version 3.1******************************
       /RESON  / : Allow strongly delocalized NBO set
       /NLMO   / : Form Natural Localized Molecular Orbitals
       /NMR /    : Analyze NMR Sheilding Tensor 

 Analyzing the SCF density

 Job title: pleiokomenine_C_1a                                              

 Storage needed:    355564 in NPA,    438187 in NBO,   2133784 in NLMO ( 104796000 available)
 GSVD:  LWork=     -108884 too small for GESVD, short by      536270 words or      536270 for optimal perf.


 NATURAL POPULATIONS:  Natural atomic orbital occupancies 
                                                          
   NAO  Atom  No  lang   Type(AO)    Occupancy      Energy
 ----------------------------------------------------------
     1    C    1  S      Cor( 1S)     1.99993     -10.93329
     2    C    1  S      Val( 2S)     1.08080      -0.16531
     3    C    1  px     Val( 2p)     0.99783       0.09952
     4    C    1  py     Val( 2p)     0.98365       0.13927
     5    C    1  pz     Val( 2p)     0.99239       0.11994
 
     6    C    2  S      Cor( 1S)     1.99990     -10.94492
     7    C    2  S      Val( 2S)     1.07712      -0.17253
     8    C    2  px     Val( 2p)     0.96546       0.11933
     9    C    2  py     Val( 2p)     0.97250       0.15208
    10    C    2  pz     Val( 2p)     0.97385       0.12524
 
    11    C    3  S      Cor( 1S)     1.99994     -10.93794
    12    C    3  S      Val( 2S)     1.08283      -0.17242
    13    C    3  px     Val( 2p)     0.98779       0.10303
    14    C    3  py     Val( 2p)     0.98487       0.13484
    15    C    3  pz     Val( 2p)     0.97990       0.12239
 
    16    C    4  S      Cor( 1S)     1.99993     -10.93133
    17    C    4  S      Val( 2S)     1.07148      -0.16376
    18    C    4  px     Val( 2p)     1.01585       0.09126
    19    C    4  py     Val( 2p)     0.99016       0.13915
    20    C    4  pz     Val( 2p)     1.01064       0.11063
 
    21    C    5  S      Cor( 1S)     1.99985     -10.97738
    22    C    5  S      Val( 2S)     1.06014      -0.17462
    23    C    5  px     Val( 2p)     0.91174       0.11408
    24    C    5  py     Val( 2p)     0.97692       0.14048
    25    C    5  pz     Val( 2p)     0.93935       0.11887
 
    26    C    6  S      Cor( 1S)     1.99990     -10.93484
    27    C    6  S      Val( 2S)     1.08362      -0.17550
    28    C    6  px     Val( 2p)     0.98477       0.11583
    29    C    6  py     Val( 2p)     0.96910       0.13129
    30    C    6  pz     Val( 2p)     0.98390       0.13323
 
    31    N    7  S      Cor( 1S)     1.99998     -15.25907
    32    N    7  S      Val( 2S)     1.40761      -0.58585
    33    N    7  px     Val( 2p)     1.59608      -0.18190
    34    N    7  py     Val( 2p)     1.13450      -0.00386
    35    N    7  pz     Val( 2p)     1.13674       0.00680
 
    36    C    8  S      Cor( 1S)     1.99996     -10.99283
    37    C    8  S      Val( 2S)     1.10908      -0.21795
    38    C    8  px     Val( 2p)     0.97582       0.09297
    39    C    8  py     Val( 2p)     0.95813       0.12515
    40    C    8  pz     Val( 2p)     0.93741       0.11933
 
    41    C    9  S      Cor( 1S)     1.99996     -11.03844
    42    C    9  S      Val( 2S)     1.11283      -0.24528
    43    C    9  px     Val( 2p)     0.93734       0.09465
    44    C    9  py     Val( 2p)     0.82580       0.14409
    45    C    9  pz     Val( 2p)     0.95296       0.08932
 
    46    C   10  S      Cor( 1S)     1.99993     -10.99880
    47    C   10  S      Val( 2S)     1.09837      -0.20141
    48    C   10  px     Val( 2p)     0.99843       0.10158
    49    C   10  py     Val( 2p)     0.95380       0.10141
    50    C   10  pz     Val( 2p)     0.87824       0.14254
 
    51    C   11  S      Cor( 1S)     1.99994     -10.96803
    52    C   11  S      Val( 2S)     1.10334      -0.20185
    53    C   11  px     Val( 2p)     0.99371       0.09614
    54    C   11  py     Val( 2p)     0.98464       0.09702
    55    C   11  pz     Val( 2p)     1.00211       0.09662
 
    56    C   12  S      Cor( 1S)     1.99996     -10.95955
    57    C   12  S      Val( 2S)     1.09176      -0.18251
    58    C   12  px     Val( 2p)     1.01865       0.10113
    59    C   12  py     Val( 2p)     0.97204       0.11101
    60    C   12  pz     Val( 2p)     0.99690       0.10479
 
    61    C   13  S      Cor( 1S)     1.99998     -10.98825
    62    C   13  S      Val( 2S)     1.10447      -0.21110
    63    C   13  px     Val( 2p)     0.93786       0.12548
    64    C   13  py     Val( 2p)     0.95606       0.12178
    65    C   13  pz     Val( 2p)     0.94890       0.12208
 
    66    N   14  S      Cor( 1S)     1.99999     -15.22236
    67    N   14  S      Val( 2S)     1.42097      -0.56381
    68    N   14  px     Val( 2p)     1.27940      -0.02877
    69    N   14  py     Val( 2p)     1.20797       0.00212
    70    N   14  pz     Val( 2p)     1.37138      -0.06669
 
    71    C   15  S      Cor( 1S)     1.99994     -10.99273
    72    C   15  S      Val( 2S)     1.06903      -0.17385
    73    C   15  px     Val( 2p)     1.03048       0.08752
    74    C   15  py     Val( 2p)     0.87673       0.14124
    75    C   15  pz     Val( 2p)     0.98481       0.10013
 
    76    C   16  S      Cor( 1S)     1.99997     -10.96212
    77    C   16  S      Val( 2S)     1.08080      -0.17538
    78    C   16  px     Val( 2p)     1.00447       0.10749
    79    C   16  py     Val( 2p)     1.00297       0.10247
    80    C   16  pz     Val( 2p)     0.98528       0.10585
 
    81    C   17  S      Cor( 1S)     1.99996     -10.96239
    82    C   17  S      Val( 2S)     1.08609      -0.17812
    83    C   17  px     Val( 2p)     1.01565       0.10301
    84    C   17  py     Val( 2p)     0.98116       0.10908
    85    C   17  pz     Val( 2p)     0.98699       0.10874
 
    86    C   18  S      Cor( 1S)     1.99995     -10.96348
    87    C   18  S      Val( 2S)     1.09191      -0.18389
    88    C   18  px     Val( 2p)     0.99749       0.10535
    89    C   18  py     Val( 2p)     0.99276       0.10461
    90    C   18  pz     Val( 2p)     0.99235       0.10030
 
    91    C   19  S      Cor( 1S)     1.99994     -10.98692
    92    C   19  S      Val( 2S)     1.07086      -0.17077
    93    C   19  px     Val( 2p)     0.90895       0.13839
    94    C   19  py     Val( 2p)     0.96810       0.09706
    95    C   19  pz     Val( 2p)     1.01816       0.09423
 
    96    C   20  S      Cor( 1S)     1.99993     -10.97183
    97    C   20  S      Val( 2S)     1.09984      -0.19991
    98    C   20  px     Val( 2p)     0.99835       0.09369
    99    C   20  py     Val( 2p)     0.95975       0.10281
   100    C   20  pz     Val( 2p)     1.01608       0.09134
 
   101    C   21  S      Cor( 1S)     1.99994     -10.99839
   102    C   21  S      Val( 2S)     1.11096      -0.22908
   103    C   21  px     Val( 2p)     0.97137       0.08870
   104    C   21  py     Val( 2p)     0.98743       0.07916
   105    C   21  pz     Val( 2p)     1.01450       0.07610
 
   106    C   22  S      Cor( 1S)     1.99991     -11.10355
   107    C   22  S      Val( 2S)     1.05550      -0.25282
   108    C   22  px     Val( 2p)     0.90182       0.10196
   109    C   22  py     Val( 2p)     0.82305       0.08796
   110    C   22  pz     Val( 2p)     0.81687       0.11059
 
   111    O   23  S      Cor( 1S)     1.99999     -20.09023
   112    O   23  S      Val( 2S)     1.80817      -1.05005
   113    O   23  px     Val( 2p)     1.58518      -0.20906
   114    O   23  py     Val( 2p)     1.56499      -0.21717
   115    O   23  pz     Val( 2p)     1.35308      -0.13040
 
   116    O   24  S      Cor( 1S)     1.99999     -20.20781
   117    O   24  S      Val( 2S)     1.73023      -1.02072
   118    O   24  px     Val( 2p)     1.41280      -0.17790
   119    O   24  py     Val( 2p)     1.47636      -0.20158
   120    O   24  pz     Val( 2p)     1.64821      -0.28319
 
   121    C   25  S      Cor( 1S)     1.99984     -11.03938
   122    C   25  S      Val( 2S)     1.07677      -0.22097
   123    C   25  px     Val( 2p)     0.85556       0.08615
   124    C   25  py     Val( 2p)     0.99625       0.05017
   125    C   25  pz     Val( 2p)     1.03699       0.04518
 
   126    C   26  S      Cor( 1S)     1.99992     -11.00790
   127    C   26  S      Val( 2S)     1.06512      -0.18841
   128    C   26  px     Val( 2p)     1.03299       0.06846
   129    C   26  py     Val( 2p)     1.02921       0.06173
   130    C   26  pz     Val( 2p)     0.88914       0.10611
 
   131    C   27  S      Cor( 1S)     1.99996     -10.97646
   132    C   27  S      Val( 2S)     1.08284      -0.18144
   133    C   27  px     Val( 2p)     0.97875       0.10343
   134    C   27  py     Val( 2p)     1.02525       0.09182
   135    C   27  pz     Val( 2p)     0.99975       0.09711
 
   136    C   28  S      Cor( 1S)     1.99990     -10.95470
   137    C   28  S      Val( 2S)     1.07943      -0.18182
   138    C   28  px     Val( 2p)     0.94544       0.15965
   139    C   28  py     Val( 2p)     0.96085       0.16532
   140    C   28  pz     Val( 2p)     0.99731       0.04912
 
   141    C   29  S      Cor( 1S)     1.99992     -10.94480
   142    C   29  S      Val( 2S)     1.08207      -0.17745
   143    C   29  px     Val( 2p)     0.98249       0.14488
   144    C   29  py     Val( 2p)     0.98813       0.14150
   145    C   29  pz     Val( 2p)     1.00210       0.03803
 
   146    C   30  S      Cor( 1S)     1.99994     -10.94774
   147    C   30  S      Val( 2S)     1.08454      -0.18215
   148    C   30  px     Val( 2p)     0.97007       0.15310
   149    C   30  py     Val( 2p)     0.97886       0.14388
   150    C   30  pz     Val( 2p)     0.99833       0.03754
 
   151    C   31  S      Cor( 1S)     1.99993     -10.94148
   152    C   31  S      Val( 2S)     1.07184      -0.17404
   153    C   31  px     Val( 2p)     0.99223       0.13961
   154    C   31  py     Val( 2p)     0.97939       0.14654
   155    C   31  pz     Val( 2p)     1.04452       0.02517
 
   156    C   32  S      Cor( 1S)     1.99985     -10.99027
   157    C   32  S      Val( 2S)     1.05945      -0.18692
   158    C   32  px     Val( 2p)     0.89370       0.15303
   159    C   32  py     Val( 2p)     0.97632       0.14176
   160    C   32  pz     Val( 2p)     0.95729       0.04010
 
   161    C   33  S      Cor( 1S)     1.99990     -10.94896
   162    C   33  S      Val( 2S)     1.08063      -0.19020
   163    C   33  px     Val( 2p)     0.98029       0.15560
   164    C   33  py     Val( 2p)     0.95794       0.12809
   165    C   33  pz     Val( 2p)     1.01508       0.04433
 
   166    N   34  S      Cor( 1S)     1.99998     -15.27440
   167    N   34  S      Val( 2S)     1.40601      -0.60019
   168    N   34  px     Val( 2p)     1.06059       0.02311
   169    N   34  py     Val( 2p)     1.09677      -0.00336
   170    N   34  pz     Val( 2p)     1.71114      -0.24494
 
   171    C   35  S      Cor( 1S)     1.99996     -11.02053
   172    C   35  S      Val( 2S)     1.10464      -0.24380
   173    C   35  px     Val( 2p)     0.95739       0.07205
   174    C   35  py     Val( 2p)     0.95862       0.09626
   175    C   35  pz     Val( 2p)     0.96649       0.07743
 
   176    C   36  S      Cor( 1S)     1.99996     -11.05985
   177    C   36  S      Val( 2S)     1.11048      -0.26453
   178    C   36  px     Val( 2p)     0.94019       0.07388
   179    C   36  py     Val( 2p)     0.83277       0.12123
   180    C   36  pz     Val( 2p)     0.94468       0.06955
 
   181    C   37  S      Cor( 1S)     1.99990     -11.03585
   182    C   37  S      Val( 2S)     1.12160      -0.26000
   183    C   37  px     Val( 2p)     0.89950       0.09136
   184    C   37  py     Val( 2p)     0.95488       0.06452
   185    C   37  pz     Val( 2p)     0.95869       0.06289
 
   186    C   38  S      Cor( 1S)     1.99994     -10.98901
   187    C   38  S      Val( 2S)     1.10474      -0.22415
   188    C   38  px     Val( 2p)     1.02037       0.07253
   189    C   38  py     Val( 2p)     0.97857       0.07832
   190    C   38  pz     Val( 2p)     0.98241       0.07531
 
   191    C   39  S      Cor( 1S)     1.99995     -10.98989
   192    C   39  S      Val( 2S)     1.09377      -0.21341
   193    C   39  px     Val( 2p)     1.01215       0.07389
   194    C   39  py     Val( 2p)     0.97722       0.08023
   195    C   39  pz     Val( 2p)     0.98796       0.08007
 
   196    C   40  S      Cor( 1S)     1.99998     -11.02466
   197    C   40  S      Val( 2S)     1.10337      -0.24455
   198    C   40  px     Val( 2p)     0.93341       0.09569
   199    C   40  py     Val( 2p)     0.95150       0.09041
   200    C   40  pz     Val( 2p)     0.95664       0.08077
 
   201    N   41  S      Cor( 1S)     1.99999     -15.42491
   202    N   41  S      Val( 2S)     1.40636      -0.66506
   203    N   41  px     Val( 2p)     1.23179      -0.12307
   204    N   41  py     Val( 2p)     1.13825      -0.09544
   205    N   41  pz     Val( 2p)     1.18316      -0.11006
 
   206    C   42  S      Cor( 1S)     1.99990     -11.03671
   207    C   42  S      Val( 2S)     1.08936      -0.23390
   208    C   42  px     Val( 2p)     1.02485       0.04967
   209    C   42  py     Val( 2p)     0.89432       0.07714
   210    C   42  pz     Val( 2p)     0.94597       0.06709
 
   211    C   43  S      Cor( 1S)     1.99996     -10.99419
   212    C   43  S      Val( 2S)     1.08073      -0.20367
   213    C   43  px     Val( 2p)     1.01133       0.07486
   214    C   43  py     Val( 2p)     0.98767       0.07723
   215    C   43  pz     Val( 2p)     0.99216       0.08323
 
   216    C   44  S      Cor( 1S)     1.99995     -10.98950
   217    C   44  S      Val( 2S)     1.08524      -0.20387
   218    C   44  px     Val( 2p)     1.00368       0.08083
   219    C   44  py     Val( 2p)     0.97724       0.08626
   220    C   44  pz     Val( 2p)     1.00471       0.07584
 
   221    C   45  S      Cor( 1S)     1.99995     -10.99447
   222    C   45  S      Val( 2S)     1.08977      -0.21497
   223    C   45  px     Val( 2p)     0.99027       0.06121
   224    C   45  py     Val( 2p)     1.02776       0.06333
   225    C   45  pz     Val( 2p)     0.98639       0.07471
 
   226    C   46  S      Cor( 1S)     1.99991     -11.03019
   227    C   46  S      Val( 2S)     1.09718      -0.23570
   228    C   46  px     Val( 2p)     1.00154       0.06047
   229    C   46  py     Val( 2p)     0.90033       0.07022
   230    C   46  pz     Val( 2p)     0.96351       0.06547
 
   231    C   47  S      Cor( 1S)     1.99992     -10.99821
   232    C   47  S      Val( 2S)     1.10110      -0.22698
   233    C   47  px     Val( 2p)     1.00058       0.06520
   234    C   47  py     Val( 2p)     0.96663       0.07451
   235    C   47  pz     Val( 2p)     1.00587       0.07017
 
   236    C   48  S      Cor( 1S)     1.99994     -11.01892
[...]
 Sum       28.8416       -2.7906      31.6322        -5.2975      34.1391

 Contributions to Isotropic shielding for atom   94 (    31.2585 ppm):
                         Standard Origin              Atomic Origin
 NLMO      Total    Paramagnetic  Diamagnetic   Paramagnetic  Diamagnetic
  102       1.8595       -1.3650       3.2245         0.9643       0.8952
  103      -0.1079        0.5846      -0.6925        -1.1798       1.0718
  105       1.0721        0.9717       0.1004        -0.0568       1.1289
  106      25.7600        0.1378      25.6222         0.4032      25.3568
  107       1.7838        3.1582      -1.3744        -0.0446       1.8284
  108      -0.1652       -1.0806       0.9154        -1.3869       1.2217
  195       0.1417       -0.5798       0.7215         1.0002      -0.8585
 Sum       30.3439        1.8268      28.5171        -0.3003      30.6443

 Contributions to Isotropic shielding for atom   95 (    32.2164 ppm):
                         Standard Origin              Atomic Origin
 NLMO      Total    Paramagnetic  Diamagnetic   Paramagnetic  Diamagnetic
   89      -0.2934        0.3512      -0.6446        -1.0106       0.7172
  102       1.3154        0.8445       0.4709         0.3687       0.9468
  104      -0.0546        1.1707      -1.2253        -1.0769       1.0222
  105       0.4847        3.2744      -2.7897        -0.5800       1.0647
  106       2.2232        2.6515      -0.4283         0.3830       1.8402
  107      26.2796       -0.5125      26.7921         0.4943      25.7853
  109      -0.0407       -0.4555       0.4148        -1.1864       1.1458
 Sum       29.9143        7.3243      22.5899        -2.6080      32.5222

 Contributions to Isotropic shielding for atom   96 (    31.9249 ppm):
                         Standard Origin              Atomic Origin
 NLMO      Total    Paramagnetic  Diamagnetic   Paramagnetic  Diamagnetic
   89      -0.2653        0.2727      -0.5381        -1.1380       0.8727
   94      -0.1211        0.3256      -0.4468        -1.0255       0.9044
   97       1.7853       -0.8433       2.6286         0.9091       0.8762
   99      -0.2457        0.2412      -0.4869        -1.1677       0.9220
  102       0.3256       -0.6885       1.0141         0.1376       0.1880
  105       1.5403       -0.6619       2.2022         0.4926       1.0477
  106      -0.2155       -0.2873       0.0718        -1.4273       1.2118
  108      26.0454        0.2718      25.7736         0.4321      25.6133
  109       1.5285        3.4161      -1.8876        -0.3040       1.8326
 Sum       30.3775        2.0464      28.3310        -3.0911      33.4686

 Contributions to Isotropic shielding for atom   97 (    32.2916 ppm):
                         Standard Origin              Atomic Origin
 NLMO      Total    Paramagnetic  Diamagnetic   Paramagnetic  Diamagnetic
   94      -0.1906        1.3009      -1.4915        -0.8905       0.6998
   97       0.8495        1.7342      -0.8848         0.0501       0.7993
   98      -0.3073        1.3352      -1.6425        -1.2916       0.9844
  105       0.7534        2.3948      -1.6413        -0.2357       0.9891
  107      -0.1151        0.6738      -0.7888        -1.2935       1.1784
  108       2.1557        2.6555      -0.4998         0.3662       1.7895
  109      26.5032       -0.5485      27.0518         0.6705      25.8327
  117      -0.0077       -1.2053       1.1976        -0.8511       0.8433
 Sum       29.6411        8.3404      21.3006        -3.4754      33.1165

 Contributions to Isotropic shielding for atom   98 (    33.3092 ppm):
                         Standard Origin              Atomic Origin
 NLMO      Total    Paramagnetic  Diamagnetic   Paramagnetic  Diamagnetic
   71      -0.0981       -0.6672       0.5691        -1.0379       0.9398
   79       0.3222       -0.7158       1.0379        -0.4246       0.7468
   81       0.2834       -0.9177       1.2011        -0.5316       0.8151
  110       1.6483       -0.6174       2.2657         0.9465       0.7018
  111      25.8434        0.3387      25.5047         0.4941      25.3493
  112       1.8457        2.0087      -0.1630         0.0747       1.7711
  114       0.1422        0.0624       0.0797        -0.8642       1.0063
  118       0.4636       -0.7469       1.2105        -0.2189       0.6825
  120       0.5989       -0.4605       1.0594        -0.0095       0.6084
  121       0.0948       -1.4782       1.5731        -0.7684       0.8632
  191      -0.3363        0.7162      -1.0525         0.2744      -0.6107
 Sum       30.8081       -2.4775      33.2856        -2.0653      32.8734

 Contributions to Isotropic shielding for atom   99 (    32.7689 ppm):
                         Standard Origin              Atomic Origin
 NLMO      Total    Paramagnetic  Diamagnetic   Paramagnetic  Diamagnetic
   83      -0.3523        0.6968      -1.0491        -0.7991       0.4468
   85       0.5734        1.4019      -0.8285        -0.1637       0.7371
   87       0.0934       -1.4363       1.5297        -0.7722       0.8656
   98       0.2021       -1.2221       1.4243        -0.4851       0.6872
  104      -0.1896       -1.3910       1.2014        -0.3705       0.1809
  110       1.2408        0.4206       0.8202         0.4168       0.8240
  111       1.9629        1.5667       0.3962         0.0476       1.9153
  112      26.1502       -0.0991      26.2493         0.5182      25.6320
  115       0.0383       -1.5584       1.5967        -0.9046       0.9429
  116      -0.2944       -1.5382       1.2438        -0.8236       0.5292
  118       0.8885       -1.4905       2.3789        -0.0920       0.9805
  120       1.3204       -1.2827       2.6031         0.5037       0.8167
  121       0.1065       -3.9325       4.0390        -1.1334       1.2399
  123       0.2697       -0.8671       1.1368        -0.3543       0.6240
  191      -0.9534        1.8875      -2.8409         0.0197      -0.9732
 Sum       31.0564       -8.8444      39.9008        -4.3925      35.4489

 Contributions to Isotropic shielding for atom  100 (    31.5725 ppm):
                         Standard Origin              Atomic Origin
 NLMO      Total    Paramagnetic  Diamagnetic   Paramagnetic  Diamagnetic
   99       0.2342       -0.4961       0.7304        -1.0372       1.2714
  103      -0.0036       -1.2929       1.2893        -0.9522       0.9486
  104       0.1287       -1.3383       1.4670        -0.7562       0.8849
  112       0.1252       -0.9136       1.0388        -0.9459       1.0711
  113      26.1055        0.4545      25.6510         0.8154      25.2901
  114       1.9499       -0.6627       2.6126         0.0720       1.8778
 Sum       28.5399       -4.2492      32.7890        -2.8040      31.3439

 Contributions to Isotropic shielding for atom  101 (    31.1855 ppm):
                         Standard Origin              Atomic Origin
 NLMO      Total    Paramagnetic  Diamagnetic   Paramagnetic  Diamagnetic
    3       0.0243       -0.6932       0.7175        -1.0112       1.0354
   71       0.1710       -0.8914       1.0623        -1.0577       1.2287
   85       0.3231       -0.7657       1.0888        -0.4337       0.7567
  100       1.5737       -0.3291       1.9028         0.6257       0.9481
  101       0.0147       -0.9973       1.0120        -0.9637       0.9784
  111       0.1088       -1.0960       1.2048        -0.8239       0.9327
  113       1.5739       -0.3878       1.9618        -0.3046       1.8786
  114      25.4410        0.7992      24.6418         0.6485      24.7926
 Sum       29.2304       -4.3614      33.5918        -3.3207      32.5511

 Contributions to Isotropic shielding for atom  102 (    31.5963 ppm):
                         Standard Origin              Atomic Origin
 NLMO      Total    Paramagnetic  Diamagnetic   Paramagnetic  Diamagnetic
   87       0.3825       -1.0741       1.4566         0.0731       0.3094
   98       2.0826       -2.0462       4.1288         1.1294       0.9531
  102      -0.1898        0.3940      -0.5837        -1.0696       0.8798
  115       1.0585        0.3066       0.7519         0.1643       0.8941
  116      26.1202        0.2823      25.8379         0.4518      25.6684
  117       1.3114        2.9336      -1.6221        -0.5950       1.9064
  118       0.3513       -0.4787       0.8300        -0.7138       1.0651
  120       0.0959       -1.1787       1.2746        -0.7822       0.8781
  121       0.5141       -1.7327       2.2468        -1.1964       1.7105
  191      -0.5475        0.6591      -1.2066         0.3401      -0.8876
 Sum       31.1792       -1.9349      33.1141        -2.1983      33.3775

 Contributions to Isotropic shielding for atom  103 (    32.0874 ppm):
                         Standard Origin              Atomic Origin
 NLMO      Total    Paramagnetic  Diamagnetic   Paramagnetic  Diamagnetic
   94      -0.2771        1.4899      -1.7670        -1.1218       0.8447
   96      -0.0403       -1.1622       1.1219        -0.8108       0.7705
   97      -0.2365        1.4438      -1.6803        -1.0163       0.7798
   98       1.2429        1.1683       0.0746         0.2211       1.0218
  115       0.2667        3.7356      -3.4689        -0.7973       1.0640
  116       1.9460        2.3154      -0.3694         0.0451       1.9009
  117      26.5416       -0.6899      27.2314         0.7374      25.8042
  119      -0.1093       -0.3395       0.2302        -1.2522       1.1429
  121       0.1477       -0.3594       0.5071        -0.9159       1.0636
 Sum       29.4817        7.6021      21.8796        -4.9108      34.3925

 Contributions to Isotropic shielding for atom  104 (    31.1916 ppm):
                         Standard Origin              Atomic Origin
 NLMO      Total    Paramagnetic  Diamagnetic   Paramagnetic  Diamagnetic
   81      -0.6317        1.3908      -2.0225        -1.2787       0.6470
   82      -0.1251        0.2792      -0.4043        -1.0544       0.9293
   86      -0.4763        1.7805      -2.2568        -1.6178       1.1414
   87       1.5364        1.0588       0.4776         0.5946       0.9419
  115       1.0533        3.1023      -2.0490        -0.1234       1.1768
  117      -0.1391        0.3617      -0.5007        -1.2940       1.1549
  118       0.0357        5.1202      -5.0845        -0.9124       0.9482
  119      26.1154       -1.1860      27.3014         0.6009      25.5145
  122       0.1645       -0.9176       1.0821        -1.4891       1.6535
  127      -0.1909       -2.3600       2.1691        -0.6017       0.4108
 Sum       27.3422        8.6299      18.7123        -7.1760      34.5182

 Contributions to Isotropic shielding for atom  105 (    30.5813 ppm):
                         Standard Origin              Atomic Origin
 NLMO      Total    Paramagnetic  Diamagnetic   Paramagnetic  Diamagnetic
  120      -1.2289        0.7998      -2.0286        -2.1329       0.9040
  121      -0.4779        2.0180      -2.4958        -2.0218       1.5439
  122      -1.4263        0.8755      -2.3018        -2.2074       0.7812
  123       0.9548        0.9675      -0.0127        -0.5102       1.4650
  124      26.3758        0.5699      25.8059         1.1485      25.2273
  125       1.1269        4.3477      -3.2209        -0.9154       2.0423
  126       1.7252       -0.1140       1.8392        -0.1468       1.8721
  191       0.5544       -1.5143       2.0687         1.3334      -0.7790
  193       1.4996       -0.8745       2.3741         1.5601      -0.0605
 Sum       29.1037        7.0756      22.0280        -3.8925      32.9962

 Contributions to Isotropic shielding for atom  106 (    30.5164 ppm):
                         Standard Origin              Atomic Origin
 NLMO      Total    Paramagnetic  Diamagnetic   Paramagnetic  Diamagnetic
  120      -0.5690        0.1841      -0.7531        -1.1967       0.6276
  121      -0.0603        0.8339      -0.8942        -1.0884       1.0280
  123       0.6832        2.2250      -1.5419        -1.3922       2.0754
  124       0.6678        3.9884      -3.3206        -1.3178       1.9856
  125      26.0581        0.3859      25.6721         0.8826      25.1754
  126       1.6156        0.4388       1.1768        -0.3805       1.9961
  193       0.7907       -1.0019       1.7926         1.2608      -0.4700
 Sum       29.1861        7.0543      22.1318        -3.2321      32.4181

 Contributions to Isotropic shielding for atom  107 (    30.6685 ppm):
                         Standard Origin              Atomic Origin
 NLMO      Total    Paramagnetic  Diamagnetic   Paramagnetic  Diamagnetic
  120      -0.7697        0.3768      -1.1465        -1.6694       0.8997
  121      -0.2045        0.8451      -1.0496        -1.7385       1.5340
  122      -0.5501        0.6961      -1.2462        -1.3984       0.8483
  123       2.8777       -5.5861       8.4639         1.4633       1.4144
  124       1.3378        0.6498       0.6880        -0.5370       1.8747
  125       1.5314        0.8168       0.7146        -0.5134       2.0448
  126      25.9525        1.0674      24.8851         0.7943      25.1581
 Sum       30.1751       -1.1341      31.3092        -3.5991      33.7741

 Contributions to Isotropic shielding for atom  108 (    30.8949 ppm):
                         Standard Origin              Atomic Origin
 NLMO      Total    Paramagnetic  Diamagnetic   Paramagnetic  Diamagnetic
   76      -0.6582        0.1283      -0.7864        -1.5127       0.8545
   81      -0.6577        1.6679      -2.3256        -1.4139       0.7562
   82       1.2546       -0.8000       2.0546         0.0774       1.1772
   86      -0.3033        1.1297      -1.4330        -1.1444       0.8412
   87      -0.2854        1.2578      -1.5432        -1.1592       0.8738
  118      -0.3521        0.5775      -0.9295        -1.1100       0.7579
  122       0.7687       -0.6933       1.4620         0.2134       0.5553
  127      25.9824        0.1175      25.8649         0.6519      25.3305
  128       1.6102        3.6239      -2.0137        -0.3716       1.9818
  129       1.2278        2.3043      -1.0765        -0.6080       1.8358
  190       1.4717        0.0493       1.4225         1.4729      -0.0012
  193      -0.9600        0.1256      -1.0857         0.3640      -1.3240
 Sum       29.0988        9.4885      19.6103        -4.5402      33.6389

 Contributions to Isotropic shielding for atom  109 (    30.6760 ppm):
                         Standard Origin              Atomic Origin
 NLMO      Total    Paramagnetic  Diamagnetic   Paramagnetic  Diamagnetic
   75      -0.6036        0.8858      -1.4894        -1.3174       0.7138
   76      -1.0575        0.3404      -1.3979        -2.4185       1.3610
   79      -0.4561        1.1430      -1.5991        -1.0884       0.6324
   82       1.7417       -1.2333       2.9750         0.4889       1.2527
  122       0.5838       -0.4280       1.0118         0.3145       0.2693
  127       1.5055        3.6434      -2.1379        -0.4638       1.9693
  128      25.9914        0.2196      25.7718         0.6511      25.3403
  129       1.4140        2.0034      -0.5894        -0.3811       1.7952
 Sum       29.1193        6.5743      22.5450        -4.2147      33.3340

 Contributions to Isotropic shielding for atom  110 (    31.8678 ppm):
                         Standard Origin              Atomic Origin
 NLMO      Total    Paramagnetic  Diamagnetic   Paramagnetic  Diamagnetic
   75      -0.3634        1.0537      -1.4171        -0.9835       0.6200
   76      -1.2760        0.3970      -1.6729        -2.4713       1.1953
   79      -0.6177        1.4005      -2.0182        -1.2987       0.6811
   82       1.9544       -2.6851       4.6394         1.1870       0.7673
   86      -0.2229        0.5568      -0.7798        -1.2478       1.0248
  127       1.7367        3.1319      -1.3952        -0.1832       1.9199
  128       1.8129        2.6654      -0.8526        -0.0817       1.8946
  129      26.6452        0.6464      25.9988         0.9623      25.6829
 Sum       29.6692        7.1667      22.5025        -4.1168      33.7860
 
 1\1\GINC-PCSN02\SP\RHF\STO-3G\C45H56N4O5\ABENIDD\30-May-2024\0\\# nmr=
 giao hf/sto-3g pop=nbo geom=connectivity\\pleiokomenine_C_1a\\0,1\C,0,
 0.,0.,0.\C,0,1.4006,0.,0.\C,0,2.0939,1.2285,0.\C,0,1.408,2.4505,-0.024
 5\C,0,0.0247,2.4416,-0.0768\C,0,-0.6627,1.2163,-0.0428\N,0,-0.8582,3.5
 496,-0.2002\C,0,-2.1455,1.4875,-0.0397\C,0,-2.0932,2.907,-0.7267\C,0,-
 3.1024,0.5791,-0.8263\C,0,-1.9495,2.7123,-2.3001\C,0,-3.1585,1.9697,-2
 .8815\C,0,-4.0384,1.4592,-1.724\N,0,-3.7725,-0.2247,0.2007\C,0,-4.9614
 ,-0.929,-0.2548\C,0,-5.928,-0.0941,-1.0943\C,0,-5.2058,0.6083,-2.2441\
 C,0,-2.6093,1.3641,1.432\C,0,-3.9173,0.5842,1.3982\C,0,-4.5683,2.7491,
 -1.0092\C,0,-3.4114,3.6843,-0.5613\C,0,-3.673,4.3159,0.7947\O,0,-4.512
 2,3.9338,1.601\O,0,-2.9,5.4253,0.9666\C,0,-3.0585,6.0572,2.2363\C,0,-0
 .3154,4.7511,-0.8143\C,0,2.1566,-1.3094,-0.0688\C,0,2.6094,-1.6698,-1.
 4699\C,0,1.6838,-1.7251,-2.5225\C,0,3.964,-1.9582,-1.7311\C,0,4.4001,-
 2.2989,-3.019\C,0,3.4779,-2.3482,-4.0506\C,0,2.1354,-2.0226,-3.7985\N,
 0,3.6983,-2.7121,-5.4067\C,0,1.3865,-2.0216,-5.1067\C,0,2.3293,-3.0151
 ,-5.8905\C,0,-0.0507,-2.5339,-5.1659\C,0,1.9327,-4.5017,-5.4922\C,0,0.
 4883,-4.8186,-5.9158\C,0,-0.2083,-3.5123,-6.3658\N,0,-0.9883,-1.3177,-
 5.1604\C,0,-1.7752,-1.1798,-6.4402\C,0,-2.4937,-2.4585,-6.8494\C,0,-1.
 6951,-3.7462,-6.6397\C,0,1.2587,-0.5622,-5.5655\C,0,-0.0724,-0.1261,-4
 .9788\C,0,0.5672,-3.0652,-7.6555\C,0,2.1029,-2.9666,-7.4124\C,0,2.7476
 ,-1.8158,-8.1709\O,0,2.1361,-0.8922,-8.6936\O,0,4.0933,-1.9947,-8.2721
 \C,0,4.7772,-0.9437,-8.9546\C,0,4.8037,-3.6278,-5.6551\O,0,-1.8671,-1.
 3926,-4.1097\H,0,-0.5652,-0.9284,0.0106\H,0,3.1817,1.2353,-0.0015\H,0,
 1.9674,3.3784,-0.0303\H,0,-2.5451,-0.1144,-1.4702\H,0,-1.8561,3.6839,-
 2.8022\H,0,-1.0364,2.1631,-2.5608\H,0,-3.7297,2.6397,-3.5364\H,0,-2.81
 39,1.1449,-3.5157\H,0,-4.6297,-1.7803,-0.8635\H,0,-5.4942,-1.3701,0.59
 64\H,0,-6.7067,-0.7478,-1.5048\H,0,-6.4414,0.6369,-0.4603\H,0,-4.8308,
 -0.1515,-2.9423\H,0,-5.9172,1.225,-2.806\H,0,-2.6933,2.3134,1.9601\H,0
 ,-1.8952,0.7717,2.0227\H,0,-4.0186,-0.0411,2.2917\H,0,-4.7815,1.2494,1
 .3683\H,0,-5.2015,3.3111,-1.711\H,0,-5.2382,2.5004,-0.186\H,0,-3.4164,
 4.5372,-1.2576\H,0,-2.8256,5.359,3.0466\H,0,-2.3553,6.8929,2.2886\H,0,
 -4.0739,6.4512,2.3422\H,0,0.1823,4.5389,-1.7673\H,0,0.4043,5.2314,-0.1
 426\H,0,-1.1078,5.4807,-1.0068\H,0,3.0182,-1.2481,0.6087\H,0,1.5359,-2
 .1277,0.3187\H,0,0.6318,-1.5125,-2.348\H,0,4.6937,-1.9193,-0.925\H,0,5
 .4483,-2.5173,-3.1876\H,0,-0.307,-3.0636,-4.2369\H,0,2.6082,-5.2258,-5
 .9653\H,0,2.0338,-4.6717,-4.413\H,0,-0.0432,-5.2879,-5.0785\H,0,0.4898
 ,-5.5549,-6.7296\H,0,-2.5005,-0.3751,-6.2659\H,0,-1.09,-0.8286,-7.2137
 \H,0,-3.4355,-2.5404,-6.2924\H,0,-2.7806,-2.3733,-7.9046\H,0,-2.1361,-
 4.2782,-5.7855\H,0,-1.8335,-4.4103,-7.5018\H,0,2.0749,0.0922,-5.2411\H
 ,0,1.1748,-0.4668,-6.6436\H,0,-0.5121,0.742,-5.4791\H,0,-0.0114,0.0768
 ,-3.9053\H,0,0.1696,-2.1355,-8.0608\H,0,0.3975,-3.8058,-8.4499\H,0,2.5
 459,-3.8636,-7.8724\H,0,4.4586,-0.8979,-10.0005\H,0,5.8481,-1.1632,-8.
 9274\H,0,4.608,0.0149,-8.4539\H,0,4.7894,-3.983,-6.69\H,0,5.7621,-3.11
 95,-5.5046\H,0,4.7648,-4.5064,-5.001\\Version=ES64L-G16RevB.01\State=1
 -A\HF=-2300.2221534\RMSD=3.480e-09\Dipole=1.2052989,-0.2556133,-1.9808
 903\Quadrupole=-4.0651714,6.8222924,-2.757121,-5.9857897,-0.7389311,9.
 2809981\PG=C01 [X(C45H56N4O5)]\\@


 CONTRAIWISE...CONTINUED TWEEDLEDEE, IF IT WAS SO, IT MIGHT BE,
 AND IF IT WERE SO, IT WOULD BE.....
 BUT AS IT ISN'T, IT AIN'T....
 THAT'S LOGIC.....
 ALICE THROUGH THE LOOKING GLASS
 Job cpu time:       0 days  0 hours 11 minutes 41.3 seconds.
 Elapsed time:       0 days  0 hours  1 minutes 57.0 seconds.
 File lengths (MBytes):  RWF=     67 Int=      0 D2E=      0 Chk=     10 Scr=      1
 Normal termination of Gaussian 16 at Thu May 30 09:21:41 2024.
