 Entering Gaussian System, Link 0=g16
 Input=1_pleiokomenine_1a_c_21.gjf
 Output=1_pleiokomenine_1a_c_21.log
 Initial command:
 /opt/gaussian/g16/l1.exe "/data/abenidd/Elvis/pleiokomenine_C/NMR_HF/1a/1_pleiokomenine_1a_c_21/Gau-25315.inp" -scrdir="/data/abenidd/Elvis/pleiokomenine_C/NMR_HF/1a/1_pleiokomenine_1a_c_21/"
 Entering Link 1 = /opt/gaussian/g16/l1.exe PID=     25317.
  
 Copyright (c) 1988-2017, Gaussian, Inc.  All Rights Reserved.
  
 This is part of the Gaussian(R) 16 program.  It is based on
 the Gaussian(R) 09 system (copyright 2009, Gaussian, Inc.),
 the Gaussian(R) 03 system (copyright 2003, Gaussian, Inc.),
 the Gaussian(R) 98 system (copyright 1998, Gaussian, Inc.),
 the Gaussian(R) 94 system (copyright 1995, Gaussian, Inc.),
 the Gaussian 92(TM) system (copyright 1992, Gaussian, Inc.),
 the Gaussian 90(TM) system (copyright 1990, Gaussian, Inc.),
 the Gaussian 88(TM) system (copyright 1988, Gaussian, Inc.),
 the Gaussian 86(TM) system (copyright 1986, Carnegie Mellon
 University), and the Gaussian 82(TM) system (copyright 1983,
 Carnegie Mellon University). Gaussian is a federally registered
 trademark of Gaussian, Inc.
  
 This software contains proprietary and confidential information,
 including trade secrets, belonging to Gaussian, Inc.
  
 This software is provided under written license and may be
 used, copied, transmitted, or stored only in accord with that
 written license.
  
 The following legend is applicable only to US Government
 contracts under FAR:
  
                    RESTRICTED RIGHTS LEGEND
  
 Use, reproduction and disclosure by the US Government is
 subject to restrictions as set forth in subparagraphs (a)
 and (c) of the Commercial Computer Software - Restricted
 Rights clause in FAR 52.227-19.
  
 Gaussian, Inc.
 340 Quinnipiac St., Bldg. 40, Wallingford CT 06492
  
  
 ---------------------------------------------------------------
 Warning -- This program may not be used in any manner that
 competes with the business of Gaussian, Inc. or will provide
 assistance to any competitor of Gaussian, Inc.  The licensee
 of this program is prohibited from giving any competitor of
 Gaussian, Inc. access to this program.  By using this program,
 the user acknowledges that Gaussian, Inc. is engaged in the
 business of creating and licensing software in the field of
 computational chemistry and represents and warrants to the
 licensee that it is not a competitor of Gaussian, Inc. and that
 it will not use this program in any manner prohibited above.
 ---------------------------------------------------------------
  

 Cite this work as:
 Gaussian 16, Revision B.01,
 M. J. Frisch, G. W. Trucks, H. B. Schlegel, G. E. Scuseria, 
 M. A. Robb, J. R. Cheeseman, G. Scalmani, V. Barone, 
 G. A. Petersson, H. Nakatsuji, X. Li, M. Caricato, A. V. Marenich, 
 J. Bloino, B. G. Janesko, R. Gomperts, B. Mennucci, H. P. Hratchian, 
 J. V. Ortiz, A. F. Izmaylov, J. L. Sonnenberg, D. Williams-Young, 
 F. Ding, F. Lipparini, F. Egidi, J. Goings, B. Peng, A. Petrone, 
 T. Henderson, D. Ranasinghe, V. G. Zakrzewski, J. Gao, N. Rega, 
 G. Zheng, W. Liang, M. Hada, M. Ehara, K. Toyota, R. Fukuda, 
 J. Hasegawa, M. Ishida, T. Nakajima, Y. Honda, O. Kitao, H. Nakai, 
 T. Vreven, K. Throssell, J. A. Montgomery, Jr., J. E. Peralta, 
 F. Ogliaro, M. J. Bearpark, J. J. Heyd, E. N. Brothers, K. N. Kudin, 
 V. N. Staroverov, T. A. Keith, R. Kobayashi, J. Normand, 
 K. Raghavachari, A. P. Rendell, J. C. Burant, S. S. Iyengar, 
 J. Tomasi, M. Cossi, J. M. Millam, M. Klene, C. Adamo, R. Cammi, 
 J. W. Ochterski, R. L. Martin, K. Morokuma, O. Farkas, 
 J. B. Foresman, and D. J. Fox, Gaussian, Inc., Wallingford CT, 2016.
 
 ******************************************
 Gaussian 16:  ES64L-G16RevB.01 20-Dec-2017
                30-May-2024 
 ******************************************
 %nprocshared=8
 Will use up to    8 processors via shared memory.
 ----------------------------------------------
 # nmr=giao hf/sto-3g pop=nbo geom=connectivity
 ----------------------------------------------
 1/38=1,57=2,172=1/1;
 2/12=2,17=6,18=5,40=1/2;
 3/6=3,11=9,25=1,30=1/1,2,3,8;
 4//1;
 5/5=2,38=5/2;
 8/6=1,10=90,11=11/1;
 10/13=100,45=16/2;
 6/7=2,8=2,9=2,10=2,28=1,40=1,64=1/1,7;
 99/9=1/99;
 ------------------
 pleiokomenine_C_1a
 ------------------
 Symbolic Z-matrix:
 Charge =  0 Multiplicity = 1
 C                     0.        0.        0. 
 C                     1.4014    0.        0. 
 C                     2.0939    1.2294    0. 
 C                     1.4083    2.4526   -0.0278 
 C                     0.0259    2.4419   -0.0891 
 C                    -0.6626    1.2136   -0.055 
 N                    -0.863     3.5475   -0.2406 
 C                    -2.1424    1.499    -0.0655 
 C                    -2.0683    2.8802   -0.8087 
 C                    -3.1256    0.5903   -0.8039 
 C                    -1.8104    2.6291   -2.3672 
 C                    -2.8901    1.7428   -2.9882 
 C                    -3.9014    1.3399   -1.91 
 N                    -4.1148    0.2316    0.2176 
 C                    -4.9661   -0.8522   -0.2244 
 C                    -5.8111   -0.3138   -1.392 
 C                    -4.9744    0.3826   -2.4817 
 C                    -2.5881    1.3969    1.4167 
 C                    -3.3954    0.0971    1.4623 
 C                    -4.5167    2.6681   -1.3424 
 C                    -3.416     3.6331   -0.7858 
 C                    -3.826     4.2851    0.5248 
 O                    -4.8469    4.0336    1.153 
 O                    -2.9544    5.2754    0.867 
 C                    -3.2555    5.9205    2.1035 
 C                    -0.3144    4.7473   -0.8518 
 C                     2.1533   -1.3118   -0.069 
 C                     2.303    -1.8291   -1.485 
 C                     1.1905   -2.3485   -2.161 
 C                     3.538    -1.7362   -2.1608 
 C                     3.6763   -2.1597   -3.4914 
 C                     2.5722   -2.6721   -4.1493 
 C                     1.3369   -2.7373   -3.4817 
 N                     2.4861   -3.174    -5.4792 
 C                     0.2796   -3.1694   -4.4642 
 C                     1.2362   -3.9734   -5.427 
 C                    -0.8844   -4.0727   -4.0366 
 C                     1.5548   -5.3875   -4.78 
 C                     0.2778   -6.2005   -4.5655 
 C                    -0.9582   -5.3486   -4.9306 
 N                    -2.1331   -3.1982   -4.0692 
 C                    -3.3885   -3.961    -4.424 
 C                    -3.3228   -5.3851   -3.9127 
 C                    -2.2445   -6.1672   -4.6633 
 C                    -0.368    -1.853    -4.9561 
 C                    -1.8504   -2.122    -5.0773 
 C                    -0.7986   -5.0142   -6.4525 
 C                     0.5613   -4.3195   -6.7659 
 C                     0.4178   -3.1834   -7.7609 
 O                    -0.6323   -2.6059   -8.0118 
 O                     1.6012   -2.9348   -8.3853 
 C                     1.5606   -1.8469   -9.309 
 C                     3.7118   -3.7176   -6.0449 
 O                    -2.3102   -2.6231   -2.8252 
 H                    -0.5615   -0.9294    0.0143 
 H                     3.1815    1.2383    0.0004 
 H                     1.9666    3.3811   -0.0374 
 H                    -2.6168   -0.298    -1.2012 
 H                    -0.8312    2.1749   -2.5632 
 H                    -1.7859    3.5884   -2.9016 
 H                    -3.3864    2.2764   -3.8082 
 H                    -2.4214    0.857    -3.4343 
 H                    -4.3863   -1.7298   -0.5344 
 H                    -5.6407   -1.1679    0.5794 
 H                    -6.5457    0.4024   -1.0013 
 H                    -6.3846   -1.1338   -1.8393 
 H                    -4.4791   -0.4001   -3.0718 
 H                    -5.6389    0.9167   -3.1712 
 H                    -3.2309    2.2233    1.717 
 H                    -1.7664    1.3606    2.1418 
 H                    -2.7442   -0.7843    1.4782 
 H                    -4.0588    0.0722    2.3318 
 H                    -5.0564    3.1864   -2.1468 
 H                    -5.275     2.4435   -0.5854 
 H                    -3.3661    4.4794   -1.4881 
 H                    -3.2785    5.1945    2.9224 
 H                    -2.4634    6.646     2.3083 
 H                    -4.2067    6.4569    2.0322 
 H                     0.2029    4.5334   -1.7938 
 H                     0.3898    5.235    -0.1691 
 H                    -1.1072    5.4714   -1.0629 
 H                     1.6371   -2.0672    0.5384 
 H                     3.1397   -1.1968    0.3986 
 H                     0.2126   -2.3954   -1.6887 
 H                     4.4031   -1.3152   -1.6528 
 H                     4.6364   -2.0676   -3.9855 
 H                    -0.7872   -4.3807   -2.9858 
 H                     2.2358   -5.9582   -5.4252 
 H                     2.0814   -5.2965   -3.8219 
 H                     0.3122   -7.1125   -5.1754 
 H                     0.2295   -6.5317   -3.5202 
 H                    -4.2234   -3.4075   -3.9794 
 H                    -3.5095   -3.9484   -5.5114 
 H                    -4.2908   -5.8806   -4.0453 
 H                    -3.1036   -5.3925   -2.8382 
 H                    -2.6641   -6.5204   -5.614 
 H                    -2.0244   -7.074    -4.0861 
 H                    -0.2533   -1.0468   -4.2172 
 H                     0.0661   -1.455    -5.8754 
 H                    -2.4743   -1.2559   -4.8355 
 H                    -2.1211   -2.492    -6.0646 
 H                    -1.654    -4.4374   -6.81 
 H                    -0.8356   -5.949    -7.0301 
 H                     1.1713   -5.0665   -7.2968 
 H                     0.8878   -2.078    -10.1406 
 H                     2.5686   -1.7035   -9.7077 
 H                     1.2535   -0.9251   -8.805 
 H                     3.5102   -4.2153   -6.9983 
 H                     4.4276   -2.9142   -6.2491 
 H                     4.1848   -4.4482   -5.3789 
 
 Stoichiometry    C45H56N4O5
 Framework group  C1[X(C45H56N4O5)]
 Deg. of freedom   324
 Full point group                 C1      NOp   1
 Largest Abelian subgroup         C1      NOp   1
 Largest concise Abelian subgroup C1      NOp   1
                         Standard orientation:                         
 ---------------------------------------------------------------------
 Center     Atomic      Atomic             Coordinates (Angstroms)
 Number     Number       Type             X           Y           Z
 ---------------------------------------------------------------------
      1          6           0        1.832511    1.605706   -1.672598
      2          6           0        1.336851    2.911287   -1.789657
      3          6           0        1.963343    3.956267   -1.077966
      4          6           0        3.055893    3.710849   -0.233488
      5          6           0        3.499837    2.409548   -0.077183
      6          6           0        2.893521    1.374182   -0.814960
      7          7           0        4.505439    1.916422    0.806580
      8          6           0        3.612799    0.086678   -0.504567
      9          6           0        4.112028    0.484376    0.930061
     10          6           0        2.865788   -1.244582   -0.418693
     11          6           0        2.891658    0.390218    1.959777
     12          6           0        2.266306   -1.004618    1.976703
     13          6           0        2.996446   -1.902940    0.972967
     14          7           0        3.584837   -2.117135   -1.352644
     15          6           0        2.847957   -3.334390   -1.617214
     16          6           0        2.815853   -4.135877   -0.304287
     17          6           0        2.348487   -3.306630    0.906664
     18          6           0        4.602670   -0.121367   -1.680518
     19          6           0        3.994711   -1.288799   -2.462043
     20          6           0        4.501937   -1.952153    1.415634
     21          6           0        5.136341   -0.522601    1.496150
     22          6           0        6.543377   -0.479967    0.922297
     23          8           0        7.109588   -1.410975    0.363052
     24          8           0        7.145894    0.709606    1.204028
     25          6           0        8.464298    0.839433    0.674215
     26          6           0        4.788825    2.718589    1.985676
     27          6           0        0.098972    3.173958   -2.620074
     28          6           0       -1.184848    2.915534   -1.858438
     29          6           0       -1.572100    1.600545   -1.566468
     30          6           0       -1.968253    3.986703   -1.379443
     31          6           0       -3.129433    3.762016   -0.624359
     32          6           0       -3.503647    2.460064   -0.342743
     33          6           0       -2.705507    1.396294   -0.798016
     34          7           0       -4.640604    2.000935    0.381468
     35          6           0       -3.237462    0.111413   -0.218357
     36          6           0       -4.733299    0.584978   -0.054982
     37          6           0       -3.205076   -1.197424   -1.018097
     38          6           0       -5.453455    0.526828   -1.468414
     39          6           0       -5.447152   -0.892477   -2.036958
     40          6           0       -4.628974   -1.826122   -1.117382
     41          7           0       -2.163458   -2.081625   -0.341128
     42          6           0       -2.476662   -3.556811   -0.438629
     43          6           0       -3.197277   -3.875830   -1.731976
     44          6           0       -4.591126   -3.247349   -1.729594
     45          6           0       -2.375536   -0.143561    1.041139
     46          6           0       -2.115869   -1.631745    1.090561
     47          6           0       -5.377226   -1.815504    0.258657
     48          6           0       -5.557062   -0.373481    0.822912
     49          6           0       -5.308278   -0.299054    2.317538
     50          8           0       -4.680653   -1.130229    2.961279
     51          8           0       -5.931699    0.783016    2.858448
     52          6           0       -5.709959    0.949195    4.259023
     53          6           0       -5.804687    2.874291    0.377457
     54          8           0       -0.933951   -1.857826   -0.930930
     55          1           0        1.381058    0.782655   -2.218536
     56          1           0        1.585224    4.972463   -1.163552
     57          1           0        3.510708    4.531389    0.308509
     58          1           0        1.813711   -1.123902   -0.709159
     59          1           0        2.103759    1.122962    1.745656
     60          1           0        3.236812    0.638360    2.972562
     61          1           0        2.319613   -1.426434    2.987975
     62          1           0        1.200400   -0.928398    1.728990
     63          1           0        1.831632   -3.129926   -1.974604
     64          1           0        3.353349   -3.935176   -2.381728
     65          1           0        3.821778   -4.523960   -0.097567
     66          1           0        2.164470   -5.009392   -0.422828
     67          1           0        1.258368   -3.195452    0.832919
     68          1           0        2.541284   -3.863818    1.831112
     69          1           0        5.599066   -0.402748   -1.342393
     70          1           0        4.728850    0.749942   -2.334106
     71          1           0        3.149339   -0.966197   -3.080473
     72          1           0        4.742364   -1.773920   -3.096410
     73          1           0        4.569270   -2.416847    2.408859
     74          1           0        5.072944   -2.608878    0.751423
     75          1           0        5.289944   -0.314777    2.566269
     76          1           0        8.457614    0.714704   -0.413259
     77          1           0        8.823381    1.846538    0.903375
     78          1           0        9.137423    0.116156    1.144709
     79          1           0        3.879332    2.978179    2.538987
     80          1           0        5.302107    3.643973    1.702773
     81          1           0        5.453649    2.181254    2.668827
     82          1           0        0.116807    2.545888   -3.520761
     83          1           0        0.116988    4.206150   -2.993053
     84          1           0       -0.971221    0.750853   -1.880354
     85          1           0       -1.665779    5.011960   -1.582077
     86          1           0       -3.705282    4.606289   -0.263790
     87          1           0       -2.816456   -1.036618   -2.033778
     88          1           0       -6.492613    0.871020   -1.382247
     89          1           0       -4.990466    1.202404   -2.198333
     90          1           0       -6.477990   -1.255948   -2.137786
     91          1           0       -5.026871   -0.875660   -3.050743
     92          1           0       -1.517691   -4.082508   -0.367165
     93          1           0       -3.088587   -3.841796    0.422516
     94          1           0       -3.287053   -4.960297   -1.858458
     95          1           0       -2.624271   -3.499760   -2.588066
     96          1           0       -5.273296   -3.907314   -1.178473
     97          1           0       -4.959459   -3.243599   -2.763135
     98          1           0       -1.393695    0.345328    0.963264
     99          1           0       -2.808021    0.241203    1.966813
    100          1           0       -1.133721   -1.892094    1.497318
    101          1           0       -2.884949   -2.164390    1.647109
    102          1           0       -4.884019   -2.482808    0.968351
    103          1           0       -6.379259   -2.247669    0.124476
    104          1           0       -6.626315   -0.134233    0.716030
    105          1           0       -6.143340    0.112368    4.815374
    106          1           0       -6.208164    1.870249    4.573730
    107          1           0       -4.640355    1.044623    4.470877
    108          1           0       -6.668033    2.369988    0.822013
    109          1           0       -5.613018    3.769316    0.978882
    110          1           0       -6.083378    3.185355   -0.635772
 ---------------------------------------------------------------------
 Rotational constants (GHZ):           0.0958789           0.0342550           0.0306451
 Standard basis: STO-3G (5D, 7F)
 There are   326 symmetry adapted cartesian basis functions of A   symmetry.
 There are   326 symmetry adapted basis functions of A   symmetry.
   326 basis functions,   978 primitive gaussians,   326 cartesian basis functions
   197 alpha electrons      197 beta electrons
       nuclear repulsion energy      8198.2206314691 Hartrees.
 NAtoms=  110 NActive=  110 NUniq=  110 SFac= 1.00D+00 NAtFMM=   60 NAOKFM=T Big=T
 Integral buffers will be    131072 words long.
 Raffenetti 1 integral format.
 Two-electron integral symmetry is turned on.
 One-electron integrals computed using PRISM.
 NBasis=   326 RedAO= T EigKep=  1.73D-01  NBF=   326
 NBsUse=   326 1.00D-06 EigRej= -1.00D+00 NBFU=   326
 ExpMin= 1.69D-01 ExpMax= 1.31D+02 ExpMxC= 1.31D+02 IAcc=3 IRadAn=         5 AccDes= 0.00D+00
 Harris functional with IExCor=  205 and IRadAn=       5 diagonalized for initial guess.
 HarFok:  IExCor=  205 AccDes= 0.00D+00 IRadAn=         5 IDoV= 1 UseB2=F ITyADJ=14
 ICtDFT=  3500011 ScaDFX=  1.000000  1.000000  1.000000  1.000000
 FoFCou: FMM=F IPFlag=           0 FMFlag=      100000 FMFlg1=        2001
         NFxFlg=           0 DoJE=T BraDBF=F KetDBF=T FulRan=T
         wScrn=  0.000000 ICntrl=       500 IOpCl=  0 I1Cent=   200000004 NGrid=           0
         NMat0=    1 NMatS0=      1 NMatT0=    0 NMatD0=    1 NMtDS0=    0 NMtDT0=    0
 Petite list used in FoFCou.
 Requested convergence on RMS density matrix=1.00D-08 within 128 cycles.
 Requested convergence on MAX density matrix=1.00D-06.
 Requested convergence on             energy=1.00D-06.
 No special actions if energy rises.
 Integral accuracy reduced to 1.0D-05 until final iterations.
 Initial convergence to 1.0D-05 achieved.  Increase integral accuracy.
 SCF Done:  E(RHF) =  -2300.21565851     A.U. after   16 cycles
            NFock= 16  Conv=0.39D-08     -V/T= 2.0092
 Range of M.O.s used for correlation:     1   326
 NBasis=   326 NAE=   197 NBE=   197 NFC=     0 NFV=     0
 NROrb=    326 NOA=   197 NOB=   197 NVA=   129 NVB=   129
          Differentiating once with respect to magnetic field using GIAOs.
          Electric field/nuclear overlap derivatives assumed to be zero.
 FoFCou: FMM=F IPFlag=           0 FMFlag=      100000 FMFlg1=        2001
         NFxFlg=           0 DoJE=F BraDBF=F KetDBF=T FulRan=T
         wScrn=  0.000000 ICntrl=      6100 IOpCl=  0 I1Cent=           7 NGrid=         110
         NMat0=    1 NMatS0=      1 NMatT0=    0 NMatD0=    1 NMtDS0=    0 NMtDT0=    0
 Symmetry not used in FoFCou.
 FoFJK:  IHMeth= 1 ICntrl=    6127 DoSepK=F KAlg= 0 I1Cent=           0 FoldK=F
 IRaf=         1 NMat=       1 IRICut=       1 DoRegI=T DoRafI=F ISym2E= 0 IDoP0=0 IntGTp=1.
          There are     3 degrees of freedom in the 1st order CPHF.  IDoFFX=0 NUNeed=     3.
      3 vectors produced by pass  0 Test12= 8.47D-13 3.33D-08 XBig12= 1.79D+02 2.41D+00.
 AX will form     3 AO Fock derivatives at one time.
      3 vectors produced by pass  1 Test12= 8.47D-13 3.33D-08 XBig12= 7.68D-01 3.36D-01.
      3 vectors produced by pass  2 Test12= 8.47D-13 3.33D-08 XBig12= 1.84D-02 3.26D-02.
      3 vectors produced by pass  3 Test12= 8.47D-13 3.33D-08 XBig12= 4.67D-04 7.59D-03.
      3 vectors produced by pass  4 Test12= 8.47D-13 3.33D-08 XBig12= 1.99D-05 1.02D-03.
      3 vectors produced by pass  5 Test12= 8.47D-13 3.33D-08 XBig12= 3.66D-07 8.77D-05.
      3 vectors produced by pass  6 Test12= 8.47D-13 3.33D-08 XBig12= 1.14D-08 1.97D-05.
      3 vectors produced by pass  7 Test12= 8.47D-13 3.33D-08 XBig12= 4.10D-10 3.07D-06.
      3 vectors produced by pass  8 Test12= 8.47D-13 3.33D-08 XBig12= 7.72D-12 3.80D-07.
      2 vectors produced by pass  9 Test12= 8.47D-13 3.33D-08 XBig12= 1.49D-13 6.79D-08.
 InvSVY:  IOpt=1 It=  1 EMax= 7.11D-15
 Solved reduced A of dimension    29 with     3 vectors.
 Calculating GIAO nuclear magnetic shielding tensors.
 SCF GIAO Magnetic shielding tensor (ppm):
      1  C    Isotropic =   125.9345   Anisotropy =   148.0934
   XX=   143.3747   YX=   -10.3550   ZX=   -70.5608
   XY=   -17.3904   YY=    70.8274   ZY=   -47.5810
   XZ=   -59.4244   YZ=   -48.8493   ZZ=   163.6016
   Eigenvalues:    34.0199   119.1202   224.6635
      2  C    Isotropic =   121.0361   Anisotropy =   156.6373
   XX=   111.9364   YX=    25.8699   ZX=   -84.1553
   XY=    22.7813   YY=    98.4283   ZY=   -12.7461
   XZ=   -87.2877   YZ=   -12.9136   ZZ=   152.7436
   Eigenvalues:    41.8840    95.7633   225.4609
      3  C    Isotropic =   120.1230   Anisotropy =   151.1408
   XX=   138.5390   YX=    39.4250   ZX=   -58.7682
   XY=    39.9007   YY=    44.4342   ZY=    -6.5211
   XZ=   -50.2407   YZ=    -9.2680   ZZ=   177.3957
   Eigenvalues:    28.9292   110.5562   220.8835
      4  C    Isotropic =   133.5838   Anisotropy =   143.5106
   XX=   154.7948   YX=    -8.3904   ZX=   -65.2058
   XY=    -7.7755   YY=    84.0487   ZY=   -35.2337
   XZ=   -67.5120   YZ=   -48.0302   ZZ=   161.9081
   Eigenvalues:    51.2519   120.2420   229.2576
      5  C    Isotropic =   107.5150   Anisotropy =   130.0062
   XX=   112.6909   YX=    24.1446   ZX=   -72.8603
   XY=    10.5079   YY=    91.7447   ZY=   -10.8716
   XZ=   -77.3986   YZ=    -9.0691   ZZ=   118.1095
   Eigenvalues:    39.6025    88.7567   194.1858
      6  C    Isotropic =   117.0436   Anisotropy =   144.0220
   XX=   137.3253   YX=    11.4124   ZX=   -62.8799
   XY=    25.7974   YY=    52.6354   ZY=    -7.3328
   XZ=   -58.6806   YZ=    -6.8238   ZZ=   161.1703
   Eigenvalues:    48.3038    89.7688   213.0583
      7  N    Isotropic =   271.2490   Anisotropy =    81.6890
   XX=   266.0396   YX=   -10.5480   ZX=    29.8133
   XY=   -20.6656   YY=   268.4454   ZY=   -44.6968
   XZ=    18.4928   YZ=   -30.9886   ZZ=   279.2620
   Eigenvalues:   234.8404   253.1983   325.7083
      8  C    Isotropic =   198.6981   Anisotropy =    13.4363
   XX=   201.4804   YX=     1.6851   ZX=    -2.5392
   XY=     8.6533   YY=   198.3979   ZY=     5.0137
   XZ=     4.1469   YZ=     8.5924   ZZ=   196.2161
   Eigenvalues:   189.6954   198.7433   207.6556
      9  C    Isotropic =   179.7845   Anisotropy =    43.6806
   XX=   169.1558   YX=    19.5832   ZX=     8.4256
   XY=     6.1194   YY=   203.7106   ZY=     4.3341
   XZ=    23.1656   YZ=    -2.2900   ZZ=   166.4871
   Eigenvalues:   150.7044   179.7441   208.9049
     10  C    Isotropic =   189.1866   Anisotropy =    32.4724
   XX=   182.3395   YX=     2.4318   ZX=   -12.6577
   XY=    -1.5502   YY=   190.8982   ZY=    16.6670
   XZ=    -6.3788   YZ=    16.2302   ZZ=   194.3220
   Eigenvalues:   171.4376   185.2873   210.8348
     11  C    Isotropic =   212.7244   Anisotropy =    20.7897
   XX=   217.5506   YX=    -1.1473   ZX=   -13.2765
   XY=     6.3653   YY=   208.1691   ZY=    -0.9434
   XZ=    -8.2652   YZ=    -2.3765   ZZ=   212.4534
   Eigenvalues:   203.9076   207.6813   226.5842
     12  C    Isotropic =   214.6667   Anisotropy =    17.2949
   XX=   213.8351   YX=    -0.4960   ZX=    -5.2875
   XY=    -2.8549   YY=   218.9077   ZY=     8.7416
   XZ=    -4.6181   YZ=     9.0456   ZZ=   211.2574
   Eigenvalues:   204.2243   213.5792   226.1967
     13  C    Isotropic =   210.8633   Anisotropy =     7.5863
   XX=   213.3184   YX=     1.9257   ZX=    -1.6374
   XY=     3.5730   YY=   212.5456   ZY=    -1.7808
   XZ=     1.9297   YZ=    -2.6863   ZZ=   206.7258
   Eigenvalues:   205.8100   210.8591   215.9208
     14  N    Isotropic =   298.8283   Anisotropy =    57.5756
   XX=   264.0839   YX=     7.4200   ZX=   -34.4478
   XY=    18.6933   YY=   318.2219   ZY=    18.6040
   XZ=   -31.3093   YZ=    16.5842   ZZ=   314.1790
   Eigenvalues:   242.6836   316.5893   337.2120
     15  C    Isotropic =   202.0681   Anisotropy =    38.9400
   XX=   195.2773   YX=    14.0348   ZX=     2.6452
   XY=    14.6613   YY=   221.3762   ZY=     3.0243
   XZ=     3.4754   YZ=     1.7717   ZZ=   189.5507
   Eigenvalues:   187.2597   190.9165   228.0281
     16  C    Isotropic =   219.1912   Anisotropy =     8.0385
   XX=   212.0434   YX=     1.3320   ZX=    -3.6380
   XY=    -2.8792   YY=   222.6437   ZY=    -0.6345
   XZ=    -3.2962   YZ=    -2.0798   ZZ=   222.8865
   Eigenvalues:   210.9210   222.1023   224.5502
     17  C    Isotropic =   214.1307   Anisotropy =    21.5832
   XX=   209.7120   YX=     5.4064   ZX=    -0.9221
   XY=     7.8830   YY=   225.5718   ZY=     5.6240
   XZ=    -2.0742   YZ=     2.5840   ZZ=   207.1083
   Eigenvalues:   204.1382   209.7344   228.5195
     18  C    Isotropic =   209.3971   Anisotropy =    31.1353
   XX=   200.8921   YX=     6.5153   ZX=   -20.2855
   XY=     2.7267   YY=   213.0932   ZY=     8.2290
   XZ=   -16.9810   YZ=    13.9870   ZZ=   214.2061
   Eigenvalues:   184.0733   213.9641   230.1540
     19  C    Isotropic =   199.9064   Anisotropy =    40.7520
   XX=   187.2971   YX=    13.8168   ZX=   -11.3315
   XY=    14.8512   YY=   205.3709   ZY=   -14.6537
   XZ=   -17.0163   YZ=    -6.6029   ZZ=   207.0512
   Eigenvalues:   177.0650   195.5798   227.0744
     20  C    Isotropic =   212.2589   Anisotropy =    22.1737
   XX=   223.7511   YX=     5.6267   ZX=     6.4013
   XY=     5.6344   YY=   212.3710   ZY=    -2.7751
   XZ=     7.2699   YZ=    -4.9541   ZZ=   200.6546
   Eigenvalues:   196.9402   212.7950   227.0413
     21  C    Isotropic =   208.1193   Anisotropy =    12.4769
   XX=   216.1389   YX=     2.4600   ZX=     0.1070
   XY=    -6.1256   YY=   204.8704   ZY=    -3.6727
   XZ=    -1.1740   YZ=    -6.7407   ZZ=   203.3486
   Eigenvalues:   198.6994   209.2212   216.4372
     22  C    Isotropic =    97.0629   Anisotropy =    98.8504
   XX=    37.0778   YX=   -79.0937   ZX=    16.2925
   XY=   -99.7318   YY=    99.3623   ZY=    12.9488
   XZ=     7.6212   YZ=     5.6642   ZZ=   154.7485
   Eigenvalues:   -27.7167   155.9422   162.9631
     23  O    Isotropic =  -136.4200   Anisotropy =   887.3508
   XX=  -256.8933   YX=     9.7165   ZX=   264.9011
   XY=     1.3464   YY=  -382.9782   ZY=  -332.4406
   XZ=   255.6268   YZ=  -330.2430   ZZ=   230.6114
   Eigenvalues:  -573.9777  -290.4295   455.1472
     24  O    Isotropic =   285.2098   Anisotropy =   138.1117
   XX=   179.3523   YX=   -13.5756   ZX=    74.8308
   XY=   119.0848   YY=   360.9105   ZY=   -44.7199
   XZ=   107.0397   YZ=     9.8968   ZZ=   315.3665
   Eigenvalues:   121.1892   357.1559   377.2843
     25  C    Isotropic =   197.4706   Anisotropy =    57.8031
   XX=   229.1791   YX=     7.7978   ZX=   -16.6651
   XY=     8.3411   YY=   178.7140   ZY=    -3.0543
   XZ=   -16.7689   YZ=    -2.3228   ZZ=   184.5189
   Eigenvalues:   177.4512   178.9547   236.0060
     26  C    Isotropic =   209.8914   Anisotropy =    41.3788
   XX=   202.7481   YX=     4.8705   ZX=     8.5118
   XY=     7.3065   YY=   207.7818   ZY=    20.2079
   XZ=     8.1025   YZ=    20.1436   ZZ=   219.1444
   Eigenvalues:   192.4993   199.6977   237.4773
     27  C    Isotropic =   206.5630   Anisotropy =    14.9316
   XX=   216.4538   YX=    -0.3719   ZX=     1.2866
   XY=    -0.5351   YY=   200.5487   ZY=    -5.5547
   XZ=     0.0319   YZ=    -3.9234   ZZ=   202.6864
   Eigenvalues:   196.7593   206.4122   216.5174
     28  C    Isotropic =   118.9911   Anisotropy =   158.6968
   XX=    89.8422   YX=    -8.9049   ZX=    87.8386
   XY=    -5.8686   YY=    91.2142   ZY=     5.6963
   XZ=    74.5428   YZ=     6.7473   ZZ=   175.9170
   Eigenvalues:    39.2372    92.9471   224.7890
     29  C    Isotropic =   123.5825   Anisotropy =   155.0892
   XX=   121.6305   YX=    38.7210   ZX=    70.6931
   XY=    37.9419   YY=    61.7024   ZY=   -15.5778
   XZ=    56.8523   YZ=    -6.7955   ZZ=   187.4147
   Eigenvalues:    31.9162   111.8561   226.9753
     30  C    Isotropic =   119.1635   Anisotropy =   150.7387
   XX=   132.7285   YX=   -25.6654   ZX=    58.4334
   XY=   -22.8685   YY=    38.5188   ZY=    17.1731
   XZ=    49.3300   YZ=     9.7462   ZZ=   186.2432
   Eigenvalues:    27.7728   110.0617   219.6560
     31  C    Isotropic =   133.8876   Anisotropy =   142.1868
   XX=   136.5856   YX=    33.3248   ZX=    60.8140
   XY=    25.5039   YY=    78.1146   ZY=   -12.8461
   XZ=    62.8592   YZ=   -16.1473   ZZ=   186.9627
   Eigenvalues:    52.9133   120.0708   228.6788
     32  C    Isotropic =   109.6875   Anisotropy =   126.0843
   XX=    89.6772   YX=    -0.1536   ZX=    66.3276
   XY=     2.7801   YY=    93.6738   ZY=     2.2865
   XZ=    72.9367   YZ=    19.9668   ZZ=   145.7115
   Eigenvalues:    42.1179    93.2009   193.7437
     33  C    Isotropic =   118.8408   Anisotropy =   138.1288
   XX=   138.9674   YX=    -4.4192   ZX=    54.7597
   XY=    -5.6950   YY=    52.6505   ZY=    16.0084
   XZ=    59.8882   YZ=     7.0639   ZZ=   164.9045
   Eigenvalues:    49.5839    96.0119   210.9267
     34  N    Isotropic =   274.5964   Anisotropy =    82.2069
   XX=   301.4502   YX=    27.5763   ZX=   -11.9745
   XY=    46.2461   YY=   269.2775   ZY=    -8.0770
   XZ=   -20.1712   YZ=    -4.7363   ZZ=   253.0616
   Eigenvalues:   243.2266   251.1617   329.4010
     35  C    Isotropic =   196.6299   Anisotropy =    15.2383
   XX=   193.9096   YX=    -9.7829   ZX=    -1.9669
   XY=    -7.1622   YY=   199.0863   ZY=     7.3186
   XZ=    -0.4812   YZ=     0.1961   ZZ=   196.8938
   Eigenvalues:   187.4578   195.6431   206.7888
     36  C    Isotropic =   181.5851   Anisotropy =    43.2206
   XX=   177.3713   YX=    -0.9137   ZX=   -17.9551
   XY=    -3.2598   YY=   205.8972   ZY=     6.7196
   XZ=    -4.6412   YZ=    19.9129   ZZ=   161.4867
   Eigenvalues:   153.2841   181.0723   210.3988
     37  C    Isotropic =   179.5235   Anisotropy =    50.8778
   XX=   182.5019   YX=   -20.2783   ZX=    16.6652
   XY=   -26.7732   YY=   181.2971   ZY=   -11.3709
   XZ=    10.6988   YZ=   -10.9529   ZZ=   174.7716
   Eigenvalues:   158.1261   167.0024   213.4420
     38  C    Isotropic =   213.8220   Anisotropy =    19.8960
   XX=   210.2931   YX=     1.0742   ZX=     8.0550
   XY=    -1.0230   YY=   210.1143   ZY=     5.7127
   XZ=    11.5200   YZ=    -1.0608   ZZ=   221.0586
   Eigenvalues:   204.2677   210.1124   227.0860
     39  C    Isotropic =   212.1328   Anisotropy =    22.4197
   XX=   205.4714   YX=    -9.5899   ZX=     7.8550
   XY=    -9.2816   YY=   219.1834   ZY=    -4.7713
   XZ=     8.0287   YZ=    -1.9862   ZZ=   211.7437
   Eigenvalues:   198.0950   211.2241   227.0793
     40  C    Isotropic =   211.7804   Anisotropy =    10.1305
   XX=   212.4707   YX=     1.9564   ZX=    -0.8117
   XY=     1.5680   YY=   216.3775   ZY=     4.0172
   XZ=    -0.4082   YZ=     5.2141   ZZ=   206.4929
   Eigenvalues:   204.4848   212.3223   218.5340
     41  N    Isotropic =   229.7311   Anisotropy =    30.6395
   XX=   245.4245   YX=   -21.0851   ZX=    -4.5766
   XY=    -2.0941   YY=   215.5158   ZY=    -4.0011
   XZ=    -3.0197   YZ=     7.1335   ZZ=   228.2531
   Eigenvalues:   211.5466   227.4893   250.1574
     42  C    Isotropic =   191.3125   Anisotropy =    54.8965
   XX=   180.3916   YX=     8.8236   ZX=    -3.8438
   XY=    10.5199   YY=   225.4729   ZY=     4.9817
   XZ=     4.8286   YZ=     5.4093   ZZ=   168.0730
   Eigenvalues:   167.5940   178.4333   227.9101
     43  C    Isotropic =   220.7834   Anisotropy =     7.6977
   XX=   222.5818   YX=    -3.1988   ZX=     5.9296
   XY=    -3.8725   YY=   221.4291   ZY=     5.0780
   XZ=     3.6760   YZ=     3.7212   ZZ=   218.3392
   Eigenvalues:   211.8940   224.5408   225.9152
     44  C    Isotropic =   214.2174   Anisotropy =    26.1276
   XX=   207.7713   YX=    -3.0187   ZX=     1.4972
   XY=    -5.3272   YY=   227.0848   ZY=     9.2335
   XZ=     1.4898   YZ=    10.3405   ZZ=   207.7962
   Eigenvalues:   202.0360   208.9805   231.6358
     45  C    Isotropic =   210.8370   Anisotropy =    37.7577
   XX=   203.8139   YX=    -3.7345   ZX=    18.0755
   XY=    -5.3975   YY=   215.0076   ZY=    -8.2822
   XZ=    18.8099   YZ=   -17.4218   ZZ=   213.6895
   Eigenvalues:   188.8507   207.6515   236.0088
     46  C    Isotropic =   187.9860   Anisotropy =    58.2368
   XX=   163.5640   YX=     1.2399   ZX=     3.4260
   XY=   -11.3436   YY=   180.9491   ZY=    20.8091
   XZ=     8.9995   YZ=    15.2309   ZZ=   219.4450
   Eigenvalues:   159.8479   177.2997   226.8106
     47  C    Isotropic =   210.5964   Anisotropy =    24.2896
   XX=   200.9824   YX=     2.6009   ZX=    -9.6133
   XY=     1.4324   YY=   212.6586   ZY=     8.6630
   XZ=    -9.3304   YZ=     9.8080   ZZ=   218.1480
   Eigenvalues:   194.8011   210.1986   226.7894
     48  C    Isotropic =   208.9943   Anisotropy =    10.0200
   XX=   205.4289   YX=     6.4357   ZX=    -0.6881
   XY=     6.2181   YY=   206.4792   ZY=    -4.9604
   XZ=    -1.9969   YZ=     3.6255   ZZ=   215.0749
   Eigenvalues:   199.5867   211.7220   215.6743
     49  C    Isotropic =    96.6259   Anisotropy =    98.2773
   XX=   148.9638   YX=    22.9432   ZX=    34.4489
   XY=    17.2082   YY=   109.1266   ZY=   -91.6550
   XZ=    22.1336   YZ=   -73.5844   ZZ=    31.7873
   Eigenvalues:   -27.5649   155.2985   162.1441
     50  O    Isotropic =  -131.1382   Anisotropy =   885.1769
   XX=   160.5113   YX=   432.6031   ZX=  -138.0800
   XY=   441.9587   YY=  -228.7235   ZY=    29.6355
   XZ=  -159.4397   YZ=    40.7006   ZZ=  -325.2025
   Eigenvalues:  -565.9225  -286.4719   458.9797
     51  O    Isotropic =   283.7395   Anisotropy =   139.2197
   XX=   342.3979   YX=    -7.4404   ZX=  -100.7671
   XY=    19.0179   YY=   361.9884   ZY=   114.1811
   XZ=   -36.9024   YZ=   -20.5357   ZZ=   146.8321
   Eigenvalues:   116.2666   358.3992   376.5526
     52  C    Isotropic =   197.2307   Anisotropy =    57.4716
   XX=   179.3750   YX=     0.7601   ZX=     4.5209
   XY=     1.4442   YY=   178.7884   ZY=     9.8065
   XZ=     4.2542   YZ=     9.5110   ZZ=   233.5286
   Eigenvalues:   177.0729   179.0740   235.5451
     53  C    Isotropic =   209.9709   Anisotropy =    42.4238
   XX=   220.7157   YX=   -21.5588   ZX=    -2.4813
   XY=   -22.2070   YY=   210.4403   ZY=     1.9445
   XZ=    -3.4426   YZ=    -0.4326   ZZ=   198.7565
   Eigenvalues:   192.8298   198.8294   238.2534
     54  O    Isotropic =    15.8844   Anisotropy =   491.7520
   XX=   267.4149   YX=    28.5587   ZX=  -161.7513
   XY=    49.6280   YY=  -158.1219   ZY=   -62.5796
   XZ=  -170.7705   YZ=   -55.2316   ZZ=   -61.6397
   Eigenvalues:  -190.6010  -105.4649   343.7191
     55  H    Isotropic =    25.6454   Anisotropy =    12.1510
   XX=    29.2311   YX=    -4.4670   ZX=     2.6355
   XY=    -4.2076   YY=    26.4504   ZY=    -2.5974
   XZ=     3.8032   YZ=    -2.5139   ZZ=    21.2546
   Eigenvalues:    19.8968    23.2933    33.7461
     56  H    Isotropic =    25.8988   Anisotropy =     6.8356
   XX=    27.1895   YX=     1.7372   ZX=     3.4059
   XY=     1.0071   YY=    27.9327   ZY=     0.4381
   XZ=     4.5830   YZ=     1.0370   ZZ=    22.5742
   Eigenvalues:    20.2684    26.9720    30.4559
     57  H    Isotropic =    26.6447   Anisotropy =     7.7467
   XX=    25.9298   YX=    -1.2144   ZX=     4.2074
   XY=    -1.0205   YY=    31.0287   ZY=    -0.7199
   XZ=     4.3523   YZ=    -1.2579   ZZ=    22.9755
   Eigenvalues:    19.9228    28.2021    31.8091
     58  H    Isotropic =    31.5267   Anisotropy =    12.9950
   XX=    39.3207   YX=     0.2186   ZX=     3.4717
   XY=    -1.3829   YY=    29.6233   ZY=    -0.3638
   XZ=     3.3325   YZ=    -2.1838   ZZ=    25.6360
   Eigenvalues:    24.5910    29.7990    40.1900
     59  H    Isotropic =    33.4170   Anisotropy =     8.7226
   XX=    36.2068   YX=    -3.2168   ZX=    -3.6343
   XY=    -4.2190   YY=    34.6569   ZY=    -0.4600
   XZ=     0.5561   YZ=    -2.8630   ZZ=    29.3871
   Eigenvalues:    27.9853    33.0336    39.2320
     60  H    Isotropic =    32.3504   Anisotropy =    12.5850
   XX=    27.7878   YX=     3.3209   ZX=    -0.5852
   XY=     2.6944   YY=    30.0562   ZY=     3.9398
   XZ=     1.4740   YZ=     3.6405   ZZ=    39.2072
   Eigenvalues:    25.4420    30.8689    40.7405
     61  H    Isotropic =    32.4779   Anisotropy =    13.8588
   XX=    28.1320   YX=     1.5340   ZX=    -2.7582
   XY=     1.6580   YY=    29.3170   ZY=    -3.3556
   XZ=    -2.1749   YZ=    -3.9863   ZZ=    39.9847
   Eigenvalues:    27.0214    28.6953    41.7171
     62  H    Isotropic =    32.6531   Anisotropy =    17.7727
   XX=    44.5003   YX=     0.3966   ZX=    -0.5541
   XY=    -0.1772   YY=    27.7100   ZY=     1.0163
   XZ=     0.7478   YZ=    -0.7876   ZZ=    25.7490
   Eigenvalues:    25.7419    27.7158    44.5016
     63  H    Isotropic =    32.0172   Anisotropy =    11.9507
   XX=    37.2522   YX=     0.8848   ZX=     4.7737
   XY=     1.7464   YY=    28.8486   ZY=     1.4472
   XZ=     4.9527   YZ=     1.4745   ZZ=    29.9509
   Eigenvalues:    27.1577    28.9096    39.9843
     64  H    Isotropic =    31.7830   Anisotropy =    15.0527
   XX=    27.0110   YX=    -1.3985   ZX=    -3.9535
   XY=    -2.1862   YY=    34.3358   ZY=     6.5173
   XZ=    -3.7725   YZ=     6.6135   ZZ=    34.0022
   Eigenvalues:    25.0864    28.4444    41.8181
     65  H    Isotropic =    31.8975   Anisotropy =    14.0822
   XX=    34.2500   YX=    -6.5437   ZX=     1.5248
   XY=    -6.8454   YY=    34.5977   ZY=    -0.5499
   XZ=     1.8126   YZ=    -0.5018   ZZ=    26.8450
   Eigenvalues:    26.2280    28.1790    41.2857
     66  H    Isotropic =    32.3755   Anisotropy =    15.8073
   XX=    30.0477   YX=     6.0101   ZX=     0.1155
   XY=     5.4571   YY=    40.1951   ZY=     1.5417
   XZ=     0.2538   YZ=     1.5310   ZZ=    26.8837
   Eigenvalues:    26.5226    27.6902    42.9137
     67  H    Isotropic =    32.1090   Anisotropy =    15.6355
   XX=    42.3276   YX=     1.5197   ZX=    -1.1965
   XY=     1.4349   YY=    29.1022   ZY=     1.0296
   XZ=    -0.6934   YZ=     0.3994   ZZ=    24.8974
   Eigenvalues:    24.6995    29.0949    42.5327
     68  H    Isotropic =    32.3832   Anisotropy =    13.9236
   XX=    26.8925   YX=     0.8954   ZX=     0.2215
   XY=     1.0142   YY=    34.6524   ZY=    -6.3681
   XZ=     0.3767   YZ=    -6.6460   ZZ=    35.6046
   Eigenvalues:    26.4938    28.9901    41.6656
     69  H    Isotropic =    32.4655   Anisotropy =    12.9594
   XX=    40.7990   YX=    -0.9375   ZX=     1.3883
   XY=    -0.1719   YY=    25.5426   ZY=     0.9428
   XZ=     2.0836   YZ=     1.8958   ZZ=    31.0549
   Eigenvalues:    25.1397    31.1517    41.1051
     70  H    Isotropic =    32.9442   Anisotropy =    11.4483
   XX=    30.4815   YX=     0.7523   ZX=    -4.3806
   XY=     3.1927   YY=    34.5522   ZY=    -5.2410
   XZ=    -5.0940   YZ=    -3.0432   ZZ=    33.7988
   Eigenvalues:    27.0087    31.2475    40.5764
     71  H    Isotropic =    32.1453   Anisotropy =    10.7691
   XX=    30.5959   YX=    -1.9451   ZX=     3.9531
   XY=    -1.6303   YY=    28.9990   ZY=    -1.9228
   XZ=     4.5926   YZ=    -0.2798   ZZ=    36.8409
   Eigenvalues:    27.4684    29.6427    39.3247
     72  H    Isotropic =    31.9454   Anisotropy =    16.2248
   XX=    31.8501   YX=    -2.8326   ZX=    -6.9958
   XY=    -1.4576   YY=    28.7303   ZY=     3.7026
   XZ=    -7.6687   YZ=     5.2641   ZZ=    35.2558
   Eigenvalues:    25.3675    27.7068    42.7620
     73  H    Isotropic =    32.0845   Anisotropy =    14.8795
   XX=    28.8574   YX=    -0.7858   ZX=     4.6531
   XY=    -0.2426   YY=    31.8554   ZY=    -6.4929
   XZ=     4.5155   YZ=    -7.1877   ZZ=    35.5407
   Eigenvalues:    24.7845    29.4648    42.0041
     74  H    Isotropic =    30.3182   Anisotropy =    11.0128
   XX=    33.5653   YX=    -4.8975   ZX=    -0.3262
   XY=    -4.0532   YY=    31.7818   ZY=     3.4340
   XZ=     0.2407   YZ=     3.3704   ZZ=    25.6076
   Eigenvalues:    23.7119    29.5826    37.6601
     75  H    Isotropic =    31.3321   Anisotropy =    12.4928
   XX=    29.6362   YX=     1.4507   ZX=     5.2569
   XY=     1.9439   YY=    27.6262   ZY=     0.9300
   XZ=     4.7097   YZ=     1.9783   ZZ=    36.7338
   Eigenvalues:    26.3315    28.0041    39.6606
     76  H    Isotropic =    30.5820   Anisotropy =     8.0507
   XX=    32.0084   YX=     1.0630   ZX=    -2.3201
   XY=     1.4722   YY=    25.7668   ZY=     0.4668
   XZ=    -3.1679   YZ=    -0.3279   ZZ=    33.9708
   Eigenvalues:    25.4717    30.3252    35.9491
     77  H    Isotropic =    30.5411   Anisotropy =    11.9989
   XX=    32.8976   YX=     5.4126   ZX=     0.7887
   XY=     4.9648   YY=    33.4965   ZY=     1.6256
   XZ=     0.2316   YZ=     1.2402   ZZ=    25.2293
   Eigenvalues:    24.9614    28.1215    38.5404
     78  H    Isotropic =    30.5196   Anisotropy =    12.1610
   XX=    36.6677   YX=    -2.9080   ZX=     3.0974
   XY=    -3.3427   YY=    28.4367   ZY=    -1.7933
   XZ=     2.8848   YZ=    -1.2473   ZZ=    26.4543
   Eigenvalues:    25.4357    27.4961    38.6269
     79  H    Isotropic =    32.0220   Anisotropy =    10.5672
   XX=    30.8864   YX=    -1.4077   ZX=    -3.7833
   XY=    -1.3895   YY=    31.8358   ZY=     5.2642
   XZ=    -1.3915   YZ=     5.5632   ZZ=    33.3438
   Eigenvalues:    26.9923    30.0069    39.0668
     80  H    Isotropic =    30.7641   Anisotropy =    14.9575
   XX=    29.5296   YX=     5.7058   ZX=     1.9084
   XY=     5.8742   YY=    37.3302   ZY=     1.2394
   XZ=     2.8157   YZ=     1.2714   ZZ=    25.4326
   Eigenvalues:    24.1549    27.4016    40.7358
     81  H    Isotropic =    30.9229   Anisotropy =    11.1384
   XX=    30.8975   YX=    -0.9371   ZX=     6.2701
   XY=    -0.4488   YY=    29.9749   ZY=     1.7667
   XZ=     7.4557   YZ=     1.5960   ZZ=    31.8963
   Eigenvalues:    24.0518    30.3685    38.3485
     82  H    Isotropic =    29.9925   Anisotropy =     7.9544
   XX=    26.2859   YX=    -0.3547   ZX=     0.0889
   XY=    -0.6957   YY=    29.5252   ZY=     2.0243
   XZ=    -0.6607   YZ=     3.0132   ZZ=    34.1664
   Eigenvalues:    26.2009    28.4812    35.2955
     83  H    Isotropic =    29.9329   Anisotropy =    12.5296
   XX=    27.3378   YX=    -0.0001   ZX=    -0.1306
   XY=    -0.3032   YY=    35.8862   ZY=    -4.7742
   XZ=     0.2924   YZ=    -5.8214   ZZ=    26.5747
   Eigenvalues:    24.1776    27.3352    38.2859
     84  H    Isotropic =    25.0747   Anisotropy =    14.0150
   XX=    29.9949   YX=     4.6005   ZX=    -2.9786
   XY=     3.9577   YY=    25.9953   ZY=    -3.1175
   XZ=    -4.7411   YZ=    -3.6416   ZZ=    19.2338
   Eigenvalues:    17.4460    23.3599    34.4180
     85  H    Isotropic =    25.6936   Anisotropy =     6.6054
   XX=    27.8769   YX=    -2.1914   ZX=    -2.7017
   XY=    -1.1955   YY=    27.6155   ZY=    -0.2185
   XZ=    -3.4656   YZ=     0.0003   ZZ=    21.5886
   Eigenvalues:    20.2514    26.7323    30.0972
     86  H    Isotropic =    26.6344   Anisotropy =     7.9350
   XX=    27.2063   YX=     1.5462   ZX=    -3.3590
   XY=     1.4029   YY=    30.9717   ZY=    -0.6885
   XZ=    -4.0131   YZ=    -0.8020   ZZ=    21.7252
   Eigenvalues:    19.8725    28.1063    31.9244
     87  H    Isotropic =    30.5397   Anisotropy =     6.6397
   XX=    30.3809   YX=     1.0649   ZX=    -2.1222
   XY=     1.1179   YY=    29.0204   ZY=    -1.7501
   XZ=    -4.4341   YZ=     0.2766   ZZ=    32.2177
   Eigenvalues:    27.7267    28.9262    34.9661
     88  H    Isotropic =    32.1616   Anisotropy =    14.0925
   XX=    38.3152   YX=    -5.2416   ZX=     3.0248
   XY=    -5.2024   YY=    31.1480   ZY=     1.2385
   XZ=     4.5424   YZ=     1.9652   ZZ=    27.0216
   Eigenvalues:    24.2071    30.7212    41.5566
     89  H    Isotropic =    32.8769   Anisotropy =     8.7492
   XX=    29.5911   YX=     3.3426   ZX=     0.0997
   XY=     1.7839   YY=    34.1847   ZY=    -5.0373
   XZ=     2.9919   YZ=    -3.2259   ZZ=    34.8550
   Eigenvalues:    27.0069    32.9141    38.7097
     90  H    Isotropic =    32.1340   Anisotropy =    15.4505
   XX=    38.8949   YX=     2.4827   ZX=     6.2377
   XY=     2.2128   YY=    29.4711   ZY=     1.9438
   XZ=     6.2343   YZ=     2.2585   ZZ=    28.0359
   Eigenvalues:    24.9739    28.9937    42.4343
     91  H    Isotropic =    32.3774   Anisotropy =    12.7341
   XX=    27.1720   YX=    -0.1484   ZX=     0.2315
   XY=    -1.0641   YY=    29.1167   ZY=    -0.2502
   XZ=     0.5436   YZ=     1.0427   ZZ=    40.8436
   Eigenvalues:    26.9817    29.2837    40.8668
     92  H    Isotropic =    30.5061   Anisotropy =    13.5821
   XX=    34.9555   YX=    -4.3450   ZX=     2.9931
   XY=    -6.3114   YY=    32.7860   ZY=     0.7119
   XZ=     2.5339   YZ=    -0.1893   ZZ=    23.7768
   Eigenvalues:    22.8573    29.1002    39.5608
     93  H    Isotropic =    31.8698   Anisotropy =     8.1458
   XX=    29.4302   YX=     1.4956   ZX=    -1.9805
   XY=     1.4618   YY=    33.9256   ZY=    -3.8011
   XZ=    -0.9982   YZ=    -3.3221   ZZ=    32.2536
   Eigenvalues:    28.7883    29.5208    37.3004
     94  H    Isotropic =    32.1551   Anisotropy =    17.4885
   XX=    27.9393   YX=    -0.1140   ZX=     1.2336
   XY=    -0.5828   YY=    42.4538   ZY=     5.4203
   XZ=     0.8855   YZ=     4.4046   ZZ=    26.0723
   Eigenvalues:    24.3648    28.2864    43.8141
     95  H    Isotropic =    31.6107   Anisotropy =    11.4751
   XX=    31.1817   YX=     0.3911   ZX=    -4.8344
   XY=    -0.2387   YY=    27.9871   ZY=     1.7809
   XZ=    -5.4807   YZ=     2.0249   ZZ=    35.6633
   Eigenvalues:    26.6887    28.8826    39.2608
     96  H    Isotropic =    32.3894   Anisotropy =    13.5602
   XX=    33.8177   YX=     5.8469   ZX=    -2.5101
   XY=     5.8500   YY=    36.6670   ZY=     0.4052
   XZ=    -3.0628   YZ=     0.0336   ZZ=    26.6835
   Eigenvalues:    25.1914    30.5472    41.4296
     97  H    Isotropic =    32.1673   Anisotropy =    14.2030
   XX=    29.4322   YX=    -0.2184   ZX=     6.1457
   XY=    -0.7485   YY=    30.2636   ZY=     4.5488
   XZ=     6.2978   YZ=     4.6213   ZZ=    36.8060
   Eigenvalues:    24.4270    30.4389    41.6359
     98  H    Isotropic =    32.3041   Anisotropy =    14.8044
   XX=    40.5129   YX=     2.8969   ZX=     3.0756
   XY=     5.2824   YY=    30.5553   ZY=    -0.8406
   XZ=     2.3825   YZ=    -4.0342   ZZ=    25.8441
   Eigenvalues:    23.7439    30.9946    42.1737
     99  H    Isotropic =    32.9627   Anisotropy =    10.0802
   XX=    32.7762   YX=    -2.5305   ZX=    -1.5935
   XY=    -1.1341   YY=    28.2237   ZY=     3.4810
   XZ=    -2.3259   YZ=     2.8526   ZZ=    37.8881
   Eigenvalues:    27.0079    32.1973    39.6828
    100  H    Isotropic =    30.8214   Anisotropy =    14.9787
   XX=    37.2133   YX=    -3.1421   ZX=     4.4278
   XY=    -2.1884   YY=    26.5919   ZY=    -1.4172
   XZ=     7.0060   YZ=    -2.3310   ZZ=    28.6589
   Eigenvalues:    25.3568    26.3001    40.8072
    101  H    Isotropic =    31.5093   Anisotropy =     8.5710
   XX=    30.9109   YX=     0.1802   ZX=    -2.7561
   XY=     1.2538   YY=    29.4080   ZY=    -2.7979
   XZ=    -2.6107   YZ=    -4.2054   ZZ=    34.2092
   Eigenvalues:    27.4192    29.8855    37.2233
    102  H    Isotropic =    31.7856   Anisotropy =     8.8154
   XX=    29.4760   YX=    -1.2551   ZX=    -0.0332
   XY=    -2.1786   YY=    32.7778   ZY=    -3.9475
   XZ=    -0.6593   YZ=    -5.2673   ZZ=    33.1032
   Eigenvalues:    27.2919    30.4024    37.6626
    103  H    Isotropic =    32.0761   Anisotropy =    15.0647
   XX=    38.1415   YX=     6.4903   ZX=    -1.7392
   XY=     6.1941   YY=    31.7658   ZY=     1.6945
   XZ=    -2.3465   YZ=     1.0482   ZZ=    26.3210
   Eigenvalues:    24.6812    29.4279    42.1192
    104  H    Isotropic =    31.1323   Anisotropy =    13.0838
   XX=    38.8321   YX=    -3.0238   ZX=    -2.1357
   XY=    -1.6562   YY=    27.6582   ZY=     2.1906
   XZ=    -2.5814   YZ=     1.3519   ZZ=    26.9066
   Eigenvalues:    25.4593    28.0828    39.8548
    105  H    Isotropic =    30.5943   Anisotropy =    11.6455
   XX=    27.8129   YX=     1.4734   ZX=    -4.1514
   XY=     2.2370   YY=    29.4087   ZY=    -3.5684
   XZ=    -4.5776   YZ=    -3.1813   ZZ=    34.5612
   Eigenvalues:    25.6572    27.7677    38.3579
    106  H    Isotropic =    30.5332   Anisotropy =    12.3087
   XX=    27.6287   YX=    -3.7535   ZX=    -2.8444
   XY=    -3.8741   YY=    32.3007   ZY=     4.1766
   XZ=    -3.6437   YZ=     4.8031   ZZ=    31.6703
   Eigenvalues:    25.3566    27.5041    38.7390
    107  H    Isotropic =    30.6985   Anisotropy =     7.3137
   XX=    33.3033   YX=     1.3430   ZX=     2.5777
   XY=     0.7112   YY=    26.1438   ZY=     2.0902
   XZ=     1.6008   YZ=     2.0203   ZZ=    32.6485
   Eigenvalues:    25.5256    30.9956    35.5743
    108  H    Isotropic =    30.9665   Anisotropy =    11.0978
   XX=    35.7267   YX=    -1.3867   ZX=    -5.8574
   XY=    -1.9228   YY=    30.3916   ZY=    -0.7848
   XZ=    -4.7944   YZ=    -1.0901   ZZ=    26.7812
   Eigenvalues:    23.9233    30.6111    38.3650
    109  H    Isotropic =    30.7426   Anisotropy =    14.5025
   XX=    27.4532   YX=    -2.1128   ZX=    -2.8001
   XY=    -2.0771   YY=    37.3368   ZY=     5.4878
   XZ=    -2.1841   YZ=     5.3984   ZZ=    27.4377
   Eigenvalues:    24.2555    27.5613    40.4109
    110  H    Isotropic =    31.9157   Anisotropy =    12.1124
   XX=    31.7431   YX=    -5.0270   ZX=     2.5589
   XY=    -4.8623   YY=    32.7295   ZY=    -3.4107
   XZ=     4.4458   YZ=    -3.5361   ZZ=    31.2745
   Eigenvalues:    27.2237    28.5329    39.9907
 End of Minotr F.D. properties file   721 does not exist.
 End of Minotr F.D. properties file   722 does not exist.
 End of Minotr F.D. properties file   788 does not exist.
 Hyperfine terms turned off by default for NAtoms > 100.

 **********************************************************************

            Population analysis using the SCF Density.

 **********************************************************************

 Orbital symmetries:
       Occupied  (A) (A) (A) (A) (A) (A) (A) (A) (A) (A) (A) (A)
                 (A) (A) (A) (A) (A) (A) (A) (A) (A) (A) (A) (A)
                 (A) (A) (A) (A) (A) (A) (A) (A) (A) (A) (A) (A)
                 (A) (A) (A) (A) (A) (A) (A) (A) (A) (A) (A) (A)
                 (A) (A) (A) (A) (A) (A) (A) (A) (A) (A) (A) (A)
                 (A) (A) (A) (A) (A) (A) (A) (A) (A) (A) (A) (A)
                 (A) (A) (A) (A) (A) (A) (A) (A) (A) (A) (A) (A)
                 (A) (A) (A) (A) (A) (A) (A) (A) (A) (A) (A) (A)
                 (A) (A) (A) (A) (A) (A) (A) (A) (A) (A) (A) (A)
                 (A) (A) (A) (A) (A) (A) (A) (A) (A) (A) (A) (A)
                 (A) (A) (A) (A) (A) (A) (A) (A) (A) (A) (A) (A)
                 (A) (A) (A) (A) (A) (A) (A) (A) (A) (A) (A) (A)
                 (A) (A) (A) (A) (A) (A) (A) (A) (A) (A) (A) (A)
                 (A) (A) (A) (A) (A) (A) (A) (A) (A) (A) (A) (A)
                 (A) (A) (A) (A) (A) (A) (A) (A) (A) (A) (A) (A)
                 (A) (A) (A) (A) (A) (A) (A) (A) (A) (A) (A) (A)
                 (A) (A) (A) (A) (A)
       Virtual   (A) (A) (A) (A) (A) (A) (A) (A) (A) (A) (A) (A)
                 (A) (A) (A) (A) (A) (A) (A) (A) (A) (A) (A) (A)
                 (A) (A) (A) (A) (A) (A) (A) (A) (A) (A) (A) (A)
                 (A) (A) (A) (A) (A) (A) (A) (A) (A) (A) (A) (A)
                 (A) (A) (A) (A) (A) (A) (A) (A) (A) (A) (A) (A)
                 (A) (A) (A) (A) (A) (A) (A) (A) (A) (A) (A) (A)
                 (A) (A) (A) (A) (A) (A) (A) (A) (A) (A) (A) (A)
                 (A) (A) (A) (A) (A) (A) (A) (A) (A) (A) (A) (A)
                 (A) (A) (A) (A) (A) (A) (A) (A) (A) (A) (A) (A)
                 (A) (A) (A) (A) (A) (A) (A) (A) (A) (A) (A) (A)
                 (A) (A) (A) (A) (A) (A) (A) (A) (A)
 The electronic state is 1-A.
 Alpha  occ. eigenvalues --  -20.31548 -20.29180 -20.25496 -20.23159 -19.92095
 Alpha  occ. eigenvalues --  -15.48232 -15.34104 -15.32392 -15.28539 -11.17521
 Alpha  occ. eigenvalues --  -11.15010 -11.11225 -11.10478 -11.09435 -11.09410
 Alpha  occ. eigenvalues --  -11.09341 -11.08610 -11.08401 -11.08028 -11.07541
 Alpha  occ. eigenvalues --  -11.07519 -11.07224 -11.06874 -11.06051 -11.06021
 Alpha  occ. eigenvalues --  -11.05697 -11.05553 -11.05384 -11.05274 -11.05159
 Alpha  occ. eigenvalues --  -11.04987 -11.04962 -11.04799 -11.04727 -11.04503
 Alpha  occ. eigenvalues --  -11.04139 -11.03863 -11.03601 -11.02447 -11.02446
 Alpha  occ. eigenvalues --  -11.02411 -11.02273 -11.02215 -11.02164 -11.01942
 Alpha  occ. eigenvalues --  -11.01712 -11.01702 -11.01499 -11.01423 -11.01214
 Alpha  occ. eigenvalues --  -11.00845 -11.00782 -11.00518 -11.00456  -1.38771
 Alpha  occ. eigenvalues --   -1.36462  -1.28667  -1.28386  -1.26114  -1.21594
 Alpha  occ. eigenvalues --   -1.20199  -1.17743  -1.12040  -1.08738  -1.07779
 Alpha  occ. eigenvalues --   -1.06932  -1.06255  -1.03715  -1.03231  -1.00746
 Alpha  occ. eigenvalues --   -0.99653  -0.98857  -0.97778  -0.97079  -0.96676
 Alpha  occ. eigenvalues --   -0.95028  -0.94985  -0.93504  -0.92777  -0.92727
 Alpha  occ. eigenvalues --   -0.92235  -0.90723  -0.90178  -0.89232  -0.87576
 Alpha  occ. eigenvalues --   -0.86044  -0.84116  -0.82946  -0.82150  -0.81160
 Alpha  occ. eigenvalues --   -0.80084  -0.78701  -0.78291  -0.77817  -0.75774
 Alpha  occ. eigenvalues --   -0.75521  -0.74692  -0.73239  -0.72763  -0.72089
 Alpha  occ. eigenvalues --   -0.71314  -0.69820  -0.69177  -0.68168  -0.67097
 Alpha  occ. eigenvalues --   -0.65721  -0.65205  -0.64034  -0.63176  -0.62776
 Alpha  occ. eigenvalues --   -0.62254  -0.62141  -0.61414  -0.61197  -0.60936
 Alpha  occ. eigenvalues --   -0.59944  -0.59722  -0.59262  -0.58688  -0.58523
 Alpha  occ. eigenvalues --   -0.58503  -0.57850  -0.57452  -0.57022  -0.56703
 Alpha  occ. eigenvalues --   -0.56556  -0.56299  -0.56143  -0.55619  -0.55532
 Alpha  occ. eigenvalues --   -0.55415  -0.54941  -0.54678  -0.54236  -0.53778
 Alpha  occ. eigenvalues --   -0.53218  -0.52865  -0.52585  -0.52228  -0.51921
 Alpha  occ. eigenvalues --   -0.51821  -0.51337  -0.51181  -0.50383  -0.50140
 Alpha  occ. eigenvalues --   -0.49418  -0.49315  -0.49009  -0.48977  -0.48650
 Alpha  occ. eigenvalues --   -0.48329  -0.47949  -0.47801  -0.47062  -0.46850
 Alpha  occ. eigenvalues --   -0.46374  -0.45921  -0.45618  -0.45390  -0.45126
 Alpha  occ. eigenvalues --   -0.44888  -0.44692  -0.44424  -0.43661  -0.43365
 Alpha  occ. eigenvalues --   -0.43295  -0.42919  -0.42473  -0.42335  -0.41974
 Alpha  occ. eigenvalues --   -0.41873  -0.41490  -0.40859  -0.40494  -0.40013
 Alpha  occ. eigenvalues --   -0.39904  -0.39752  -0.39268  -0.38486  -0.37897
 Alpha  occ. eigenvalues --   -0.36310  -0.35905  -0.35769  -0.34902  -0.34385
 Alpha  occ. eigenvalues --   -0.34150  -0.32799  -0.32571  -0.31876  -0.30644
 Alpha  occ. eigenvalues --   -0.26859  -0.25948  -0.25808  -0.21370  -0.19714
 Alpha  occ. eigenvalues --   -0.15892  -0.15808
 Alpha virt. eigenvalues --    0.26910   0.27416   0.28385   0.29505   0.29895
 Alpha virt. eigenvalues --    0.32050   0.45865   0.46885   0.48451   0.49733
 Alpha virt. eigenvalues --    0.49993   0.50199   0.50599   0.52114   0.52466
 Alpha virt. eigenvalues --    0.53428   0.54038   0.55469   0.55540   0.56306
 Alpha virt. eigenvalues --    0.57396   0.57880   0.58174   0.58865   0.59160
 Alpha virt. eigenvalues --    0.59533   0.59625   0.59861   0.60562   0.61279
 Alpha virt. eigenvalues --    0.61662   0.61979   0.62098   0.62754   0.63353
 Alpha virt. eigenvalues --    0.63461   0.63985   0.64132   0.64388   0.64552
 Alpha virt. eigenvalues --    0.64966   0.65354   0.65654   0.65861   0.66316
 Alpha virt. eigenvalues --    0.66592   0.66762   0.66939   0.67193   0.67698
 Alpha virt. eigenvalues --    0.67904   0.68041   0.68564   0.68736   0.68916
 Alpha virt. eigenvalues --    0.69166   0.69372   0.69707   0.69838   0.70198
 Alpha virt. eigenvalues --    0.70620   0.70725   0.71178   0.71333   0.71463
 Alpha virt. eigenvalues --    0.71744   0.72255   0.72318   0.72611   0.72834
 Alpha virt. eigenvalues --    0.73045   0.73203   0.73590   0.73951   0.74008
 Alpha virt. eigenvalues --    0.74483   0.74830   0.75132   0.75222   0.75250
 Alpha virt. eigenvalues --    0.75611   0.75750   0.76202   0.76473   0.76712
 Alpha virt. eigenvalues --    0.77175   0.77281   0.77683   0.77833   0.77879
 Alpha virt. eigenvalues --    0.77994   0.78117   0.78334   0.79286   0.79645
 Alpha virt. eigenvalues --    0.79827   0.79996   0.80410   0.80842   0.80995
 Alpha virt. eigenvalues --    0.81516   0.81679   0.82032   0.82525   0.82615
 Alpha virt. eigenvalues --    0.83722   0.83993   0.84510   0.84997   0.85097
 Alpha virt. eigenvalues --    0.86446   0.86657   0.87195   0.87518   0.88302
 Alpha virt. eigenvalues --    0.89029   0.90350   0.91084   0.92319   0.94348
 Alpha virt. eigenvalues --    0.95179   0.96217   0.98874   1.00565   1.02693
 Alpha virt. eigenvalues --    1.11057   1.12186   1.16071   1.17140
          Condensed to atoms (all electrons):
 Mulliken charges:
               1
     1  C   -0.075358
     2  C    0.000291
     3  C   -0.063697
     4  C   -0.090762
     5  C    0.089008
     6  C   -0.011432
     7  N   -0.282269
     8  C    0.014949
     9  C    0.129267
    10  C    0.035578
    11  C   -0.114439
    12  C   -0.107905
    13  C    0.042935
    14  N   -0.291980
    15  C   -0.014524
    16  C   -0.093639
    17  C   -0.101084
    18  C   -0.098938
    19  C   -0.014343
    20  C   -0.104332
    21  C   -0.063768
    22  C    0.317761
    23  O   -0.274581
    24  O   -0.256305
    25  C   -0.055271
    26  C   -0.078955
    27  C   -0.109185
    28  C    0.002315
    29  C   -0.073924
    30  C   -0.061160
    31  C   -0.090125
    32  C    0.086337
    33  C   -0.013057
    34  N   -0.286605
    35  C    0.017295
    36  C    0.128410
    37  C    0.039670
    38  C   -0.116406
    39  C   -0.103632
    40  C    0.027595
    41  N   -0.080663
    42  C   -0.008953
    43  C   -0.103505
    44  C   -0.104560
    45  C   -0.106335
    46  C   -0.016414
    47  C   -0.108950
    48  C   -0.068061
    49  C    0.320226
    50  O   -0.279250
    51  O   -0.254363
    52  C   -0.055744
    53  C   -0.079797
    54  O   -0.458247
    55  H    0.063601
    56  H    0.053575
    57  H    0.057160
    58  H    0.063334
    59  H    0.053518
    60  H    0.046530
    61  H    0.044745
    62  H    0.052364
    63  H    0.051981
    64  H    0.055579
    65  H    0.052040
    66  H    0.046786
    67  H    0.055553
    68  H    0.045746
    69  H    0.062759
    70  H    0.055640
    71  H    0.041063
    72  H    0.059038
    73  H    0.045606
    74  H    0.079443
    75  H    0.061342
    76  H    0.073684
    77  H    0.075247
    78  H    0.070537
    79  H    0.053587
    80  H    0.070012
    81  H    0.075219
    82  H    0.058941
    83  H    0.056188
    84  H    0.081766
    85  H    0.056507
    86  H    0.058079
    87  H    0.089058
    88  H    0.052758
    89  H    0.058878
    90  H    0.052504
    91  H    0.054467
    92  H    0.092143
    93  H    0.060341
    94  H    0.065004
    95  H    0.073740
    96  H    0.053494
    97  H    0.058409
    98  H    0.080034
    99  H    0.070949
   100  H    0.088342
   101  H    0.073606
   102  H    0.062509
   103  H    0.055802
   104  H    0.067823
   105  H    0.073418
   106  H    0.079268
   107  H    0.075720
   108  H    0.075724
   109  H    0.073467
   110  H    0.056250
 Sum of Mulliken charges =  -0.00000
 Mulliken charges with hydrogens summed into heavy atoms:
               1
     1  C   -0.011757
     2  C    0.000291
     3  C   -0.010122
     4  C   -0.033602
     5  C    0.089008
     6  C   -0.011432
     7  N   -0.282269
     8  C    0.014949
     9  C    0.129267
    10  C    0.098912
    11  C   -0.014391
    12  C   -0.010796
    13  C    0.042935
    14  N   -0.291980
    15  C    0.093036
    16  C    0.005188
    17  C    0.000216
    18  C    0.019462
    19  C    0.085757
    20  C    0.020717
    21  C   -0.002426
    22  C    0.317761
    23  O   -0.274581
    24  O   -0.256305
    25  C    0.164198
    26  C    0.119863
    27  C    0.005944
    28  C    0.002315
    29  C    0.007842
    30  C   -0.004654
    31  C   -0.032046
    32  C    0.086337
    33  C   -0.013057
    34  N   -0.286605
    35  C    0.017295
    36  C    0.128410
    37  C    0.128729
    38  C   -0.004770
    39  C    0.003339
    40  C    0.027595
    41  N   -0.080663
    42  C    0.143532
    43  C    0.035239
    44  C    0.007343
    45  C    0.044647
    46  C    0.145535
    47  C    0.009361
    48  C   -0.000239
    49  C    0.320226
    50  O   -0.279250
    51  O   -0.254363
    52  C    0.172662
    53  C    0.125645
    54  O   -0.458247
 Electronic spatial extent (au):  <R**2>=          36442.1553
 Charge=             -0.0000 electrons
 Dipole moment (field-independent basis, Debye):
    X=             -6.7233    Y=              0.3852    Z=              1.5800  Tot=              6.9172
 Quadrupole moment (field-independent basis, Debye-Ang):
   XX=           -279.1530   YY=           -296.5283   ZZ=           -292.7484
   XY=             13.3666   XZ=              6.3417   YZ=              3.5390
 Traceless Quadrupole moment (field-independent basis, Debye-Ang):
   XX=             10.3235   YY=             -7.0517   ZZ=             -3.2718
   XY=             13.3666   XZ=              6.3417   YZ=              3.5390
 Octapole moment (field-independent basis, Debye-Ang**2):
  XXX=           -171.3505  YYY=            -16.8011  ZZZ=             57.3732  XYY=            -51.8551
  XXY=             54.5990  XXZ=             50.9203  XZZ=              0.0187  YZZ=              3.5044
  YYZ=             12.4260  XYZ=            -17.2652
 Hexadecapole moment (field-independent basis, Debye-Ang**3):
 XXXX=         -30371.5384 YYYY=          -9015.8873 ZZZZ=          -4589.3797 XXXY=            615.0527
 XXXZ=             11.2315 YYYX=             87.3220 YYYZ=             67.8719 ZZZX=           -240.8391
 ZZZY=            133.5856 XXYY=          -6840.9327 XXZZ=          -5791.9672 YYZZ=          -2343.8819
 XXYZ=            117.1051 YYXZ=             15.8754 ZZXY=            -99.5161
 N-N= 8.198220631469D+03 E-N=-2.177406367114D+04  KE= 2.279179716117D+03
 ******************************Gaussian NBO Version 3.1******************************
             N A T U R A L   A T O M I C   O R B I T A L   A N D
          N A T U R A L   B O N D   O R B I T A L   A N A L Y S I S
 ******************************Gaussian NBO Version 3.1******************************
       /RESON  / : Allow strongly delocalized NBO set
       /NLMO   / : Form Natural Localized Molecular Orbitals
       /NMR /    : Analyze NMR Sheilding Tensor 

 Analyzing the SCF density

 Job title: pleiokomenine_C_1a                                              

 Storage needed:    355564 in NPA,    438187 in NBO,   2133784 in NLMO ( 104796000 available)
 GSVD:  LWork=     -108884 too small for GESVD, short by      536270 words or      536270 for optimal perf.


 NATURAL POPULATIONS:  Natural atomic orbital occupancies 
                                                          
   NAO  Atom  No  lang   Type(AO)    Occupancy      Energy
 ----------------------------------------------------------
     1    C    1  S      Cor( 1S)     1.99992     -10.93253
     2    C    1  S      Val( 2S)     1.07854      -0.16364
     3    C    1  px     Val( 2p)     0.99865       0.10726
     4    C    1  py     Val( 2p)     0.98083       0.16590
     5    C    1  pz     Val( 2p)     1.00044       0.08383
 
     6    C    2  S      Cor( 1S)     1.99990     -10.94492
     7    C    2  S      Val( 2S)     1.07727      -0.17191
     8    C    2  px     Val( 2p)     0.95634       0.13051
     9    C    2  py     Val( 2p)     0.96223       0.18347
    10    C    2  pz     Val( 2p)     0.99016       0.08591
 
    11    C    3  S      Cor( 1S)     1.99994     -10.93665
    12    C    3  S      Val( 2S)     1.08301      -0.17128
    13    C    3  px     Val( 2p)     0.98541       0.11494
    14    C    3  py     Val( 2p)     0.97563       0.16539
    15    C    3  pz     Val( 2p)     0.99180       0.08433
 
    16    C    4  S      Cor( 1S)     1.99993     -10.93011
    17    C    4  S      Val( 2S)     1.07197      -0.16264
    18    C    4  px     Val( 2p)     1.01175       0.10247
    19    C    4  py     Val( 2p)     0.97593       0.16961
    20    C    4  pz     Val( 2p)     1.02836       0.07330
 
    21    C    5  S      Cor( 1S)     1.99985     -10.97600
    22    C    5  S      Val( 2S)     1.06196      -0.17489
    23    C    5  px     Val( 2p)     0.90473       0.11961
    24    C    5  py     Val( 2p)     0.97576       0.16864
    25    C    5  pz     Val( 2p)     0.94456       0.09070
 
    26    C    6  S      Cor( 1S)     1.99990     -10.93466
    27    C    6  S      Val( 2S)     1.08433      -0.17620
    28    C    6  px     Val( 2p)     0.98419       0.12737
    29    C    6  py     Val( 2p)     0.95631       0.15642
    30    C    6  pz     Val( 2p)     0.99568       0.09653
 
    31    N    7  S      Cor( 1S)     1.99998     -15.25706
    32    N    7  S      Val( 2S)     1.41157      -0.58430
    33    N    7  px     Val( 2p)     1.55470      -0.15894
    34    N    7  py     Val( 2p)     1.06304       0.02950
    35    N    7  pz     Val( 2p)     1.24195      -0.03617
 
    36    C    8  S      Cor( 1S)     1.99996     -10.98958
    37    C    8  S      Val( 2S)     1.10602      -0.21400
    38    C    8  px     Val( 2p)     0.98216       0.08677
    39    C    8  py     Val( 2p)     0.95717       0.13339
    40    C    8  pz     Val( 2p)     0.94028       0.12131
 
    41    C    9  S      Cor( 1S)     1.99996     -11.03628
    42    C    9  S      Val( 2S)     1.11407      -0.24365
    43    C    9  px     Val( 2p)     0.92843       0.09623
    44    C    9  py     Val( 2p)     0.83179       0.14448
    45    C    9  pz     Val( 2p)     0.95208       0.09791
 
    46    C   10  S      Cor( 1S)     1.99994     -10.99187
    47    C   10  S      Val( 2S)     1.09494      -0.19457
    48    C   10  px     Val( 2p)     0.97449       0.12431
    49    C   10  py     Val( 2p)     0.92134       0.11884
    50    C   10  pz     Val( 2p)     0.94257       0.10675
 
    51    C   11  S      Cor( 1S)     1.99993     -10.96570
    52    C   11  S      Val( 2S)     1.10451      -0.20077
    53    C   11  px     Val( 2p)     0.99025       0.09869
    54    C   11  py     Val( 2p)     0.99000       0.10156
    55    C   11  pz     Val( 2p)     0.99911       0.09573
 
    56    C   12  S      Cor( 1S)     1.99996     -10.96066
    57    C   12  S      Val( 2S)     1.08816      -0.18012
    58    C   12  px     Val( 2p)     1.00557       0.10461
    59    C   12  py     Val( 2p)     0.97878       0.10562
    60    C   12  pz     Val( 2p)     1.00584       0.10386
 
    61    C   13  S      Cor( 1S)     1.99998     -10.98630
    62    C   13  S      Val( 2S)     1.09961      -0.20258
    63    C   13  px     Val( 2p)     0.94044       0.13017
    64    C   13  py     Val( 2p)     0.94840       0.12810
    65    C   13  pz     Val( 2p)     0.94685       0.12783
 
    66    N   14  S      Cor( 1S)     1.99999     -15.21615
    67    N   14  S      Val( 2S)     1.42525      -0.56363
    68    N   14  px     Val( 2p)     1.55142      -0.13420
    69    N   14  py     Val( 2p)     1.10114       0.04644
    70    N   14  pz     Val( 2p)     1.20320      -0.00137
 
    71    C   15  S      Cor( 1S)     1.99994     -10.98914
    72    C   15  S      Val( 2S)     1.07108      -0.17127
    73    C   15  px     Val( 2p)     0.98200       0.11590
    74    C   15  py     Val( 2p)     0.91727       0.12089
    75    C   15  pz     Val( 2p)     0.98989       0.10068
 
    76    C   16  S      Cor( 1S)     1.99996     -10.96141
    77    C   16  S      Val( 2S)     1.08388      -0.17413
    78    C   16  px     Val( 2p)     1.01549       0.10963
    79    C   16  py     Val( 2p)     0.98872       0.11170
    80    C   16  pz     Val( 2p)     0.96814       0.11690
 
    81    C   17  S      Cor( 1S)     1.99995     -10.96136
    82    C   17  S      Val( 2S)     1.09040      -0.17946
    83    C   17  px     Val( 2p)     1.01050       0.10590
    84    C   17  py     Val( 2p)     0.97558       0.11349
    85    C   17  pz     Val( 2p)     0.98893       0.11260
 
    86    C   18  S      Cor( 1S)     1.99994     -10.96276
    87    C   18  S      Val( 2S)     1.09304      -0.18326
    88    C   18  px     Val( 2p)     1.00111       0.10897
    89    C   18  py     Val( 2p)     0.99443       0.10411
    90    C   18  pz     Val( 2p)     0.97698       0.10411
 
    91    C   19  S      Cor( 1S)     1.99995     -10.98999
    92    C   19  S      Val( 2S)     1.07165      -0.17443
    93    C   19  px     Val( 2p)     1.00075       0.09896
    94    C   19  py     Val( 2p)     0.95458       0.09640
    95    C   19  pz     Val( 2p)     0.93394       0.12877
 
    96    C   20  S      Cor( 1S)     1.99992     -10.96609
    97    C   20  S      Val( 2S)     1.10213      -0.19470
    98    C   20  px     Val( 2p)     0.98218       0.10181
    99    C   20  py     Val( 2p)     0.96059       0.11305
   100    C   20  pz     Val( 2p)     1.02170       0.10158
 
   101    C   21  S      Cor( 1S)     1.99994     -10.99550
   102    C   21  S      Val( 2S)     1.11407      -0.22754
   103    C   21  px     Val( 2p)     0.96437       0.09712
   104    C   21  py     Val( 2p)     0.99286       0.08295
   105    C   21  pz     Val( 2p)     1.00860       0.08049
 
   106    C   22  S      Cor( 1S)     1.99991     -11.09728
   107    C   22  S      Val( 2S)     1.05645      -0.24697
   108    C   22  px     Val( 2p)     0.90217       0.10083
   109    C   22  py     Val( 2p)     0.77821       0.18091
   110    C   22  pz     Val( 2p)     0.86307       0.03665
 
   111    O   23  S      Cor( 1S)     1.99999     -20.08400
   112    O   23  S      Val( 2S)     1.80833      -1.04315
   113    O   23  px     Val( 2p)     1.70955      -0.25157
   114    O   23  py     Val( 2p)     1.49571      -0.16464
   115    O   23  pz     Val( 2p)     1.29499      -0.11842
 
   116    O   24  S      Cor( 1S)     1.99999     -20.20123
   117    O   24  S      Val( 2S)     1.72967      -1.01407
   118    O   24  px     Val( 2p)     1.29539      -0.11820
   119    O   24  py     Val( 2p)     1.48725      -0.20351
   120    O   24  pz     Val( 2p)     1.75575      -0.32211
 
   121    C   25  S      Cor( 1S)     1.99984     -11.03465
   122    C   25  S      Val( 2S)     1.07646      -0.21596
   123    C   25  px     Val( 2p)     0.83845       0.09209
   124    C   25  py     Val( 2p)     1.04144       0.04566
   125    C   25  pz     Val( 2p)     1.00873       0.05830
 
   126    C   26  S      Cor( 1S)     1.99992     -11.00449
   127    C   26  S      Val( 2S)     1.06503      -0.18498
   128    C   26  px     Val( 2p)     1.02839       0.07116
   129    C   26  py     Val( 2p)     0.99601       0.07506
   130    C   26  pz     Val( 2p)     0.92753       0.09993
 
   131    C   27  S      Cor( 1S)     1.99995     -10.97538
   132    C   27  S      Val( 2S)     1.08240      -0.18007
   133    C   27  px     Val( 2p)     0.98015       0.10371
   134    C   27  py     Val( 2p)     1.02759       0.09241
   135    C   27  pz     Val( 2p)     0.99579       0.09981
 
   136    C   28  S      Cor( 1S)     1.99990     -10.95226
   137    C   28  S      Val( 2S)     1.07916      -0.17930
   138    C   28  px     Val( 2p)     0.95160       0.13510
   139    C   28  py     Val( 2p)     0.95920       0.18193
   140    C   28  pz     Val( 2p)     0.99288       0.06453
 
   141    C   29  S      Cor( 1S)     1.99992     -10.93980
   142    C   29  S      Val( 2S)     1.08251      -0.17220
   143    C   29  px     Val( 2p)     0.98242       0.12109
   144    C   29  py     Val( 2p)     0.98916       0.16089
   145    C   29  pz     Val( 2p)     1.00116       0.05696
 
   146    C   30  S      Cor( 1S)     1.99995     -10.94532
   147    C   30  S      Val( 2S)     1.08444      -0.18003
   148    C   30  px     Val( 2p)     0.97865       0.12290
   149    C   30  py     Val( 2p)     0.97541       0.16083
   150    C   30  pz     Val( 2p)     0.99411       0.05828
 
   151    C   31  S      Cor( 1S)     1.99993     -10.93987
   152    C   31  S      Val( 2S)     1.07186      -0.17216
   153    C   31  px     Val( 2p)     1.00792       0.10767
   154    C   31  py     Val( 2p)     0.97234       0.16424
   155    C   31  pz     Val( 2p)     1.03532       0.04519
 
   156    C   32  S      Cor( 1S)     1.99985     -10.98739
   157    C   32  S      Val( 2S)     1.05997      -0.18550
   158    C   32  px     Val( 2p)     0.91206       0.12283
   159    C   32  py     Val( 2p)     0.97997       0.15634
   160    C   32  pz     Val( 2p)     0.93881       0.06122
 
   161    C   33  S      Cor( 1S)     1.99990     -10.94646
   162    C   33  S      Val( 2S)     1.08130      -0.18714
   163    C   33  px     Val( 2p)     0.99428       0.12285
   164    C   33  py     Val( 2p)     0.94317       0.15045
   165    C   33  pz     Val( 2p)     1.00726       0.06712
 
   166    N   34  S      Cor( 1S)     1.99998     -15.27364
   167    N   34  S      Val( 2S)     1.40764      -0.60055
   168    N   34  px     Val( 2p)     1.11866      -0.00352
   169    N   34  py     Val( 2p)     1.05892       0.01425
   170    N   34  pz     Val( 2p)     1.68975      -0.23386
 
   171    C   35  S      Cor( 1S)     1.99996     -11.02091
   172    C   35  S      Val( 2S)     1.10744      -0.24479
   173    C   35  px     Val( 2p)     0.94950       0.08387
   174    C   35  py     Val( 2p)     0.95623       0.10155
   175    C   35  pz     Val( 2p)     0.96962       0.06847
 
   176    C   36  S      Cor( 1S)     1.99996     -11.05999
   177    C   36  S      Val( 2S)     1.11036      -0.26507
   178    C   36  px     Val( 2p)     0.94730       0.07454
   179    C   36  py     Val( 2p)     0.84106       0.11468
   180    C   36  pz     Val( 2p)     0.92968       0.07359
 
   181    C   37  S      Cor( 1S)     1.99991     -11.04215
   182    C   37  S      Val( 2S)     1.11945      -0.26255
   183    C   37  px     Val( 2p)     0.90553       0.08586
   184    C   37  py     Val( 2p)     0.91798       0.06647
   185    C   37  pz     Val( 2p)     0.98557       0.05867
 
   186    C   38  S      Cor( 1S)     1.99994     -10.98879
   187    C   38  S      Val( 2S)     1.10278      -0.22274
   188    C   38  px     Val( 2p)     1.01532       0.07041
   189    C   38  py     Val( 2p)     0.98705       0.07865
   190    C   38  pz     Val( 2p)     0.98341       0.07449
 
   191    C   39  S      Cor( 1S)     1.99996     -10.99143
   192    C   39  S      Val( 2S)     1.09231      -0.21396
   193    C   39  px     Val( 2p)     1.01003       0.07271
   194    C   39  py     Val( 2p)     0.97382       0.07793
   195    C   39  pz     Val( 2p)     0.99583       0.07647
 
   196    C   40  S      Cor( 1S)     1.99998     -11.02711
   197    C   40  S      Val( 2S)     1.10747      -0.25097
   198    C   40  px     Val( 2p)     0.93948       0.08759
   199    C   40  py     Val( 2p)     0.95144       0.08677
   200    C   40  pz     Val( 2p)     0.95188       0.08251
 
   201    N   41  S      Cor( 1S)     1.99999     -15.42146
   202    N   41  S      Val( 2S)     1.40443      -0.66388
   203    N   41  px     Val( 2p)     1.26099      -0.13200
   204    N   41  py     Val( 2p)     1.13550      -0.09463
   205    N   41  pz     Val( 2p)     1.16616      -0.10491
 
   206    C   42  S      Cor( 1S)     1.99990     -11.03508
   207    C   42  S      Val( 2S)     1.08985      -0.23294
   208    C   42  px     Val( 2p)     1.02824       0.05137
   209    C   42  py     Val( 2p)     0.83509       0.08647
   210    C   42  pz     Val( 2p)     1.00297       0.05676
 
   211    C   43  S      Cor( 1S)     1.99997     -10.99746
   212    C   43  S      Val( 2S)     1.07996      -0.20739
   213    C   43  px     Val( 2p)     0.98270       0.07583
   214    C   43  py     Val( 2p)     1.02129       0.06688
   215    C   43  pz     Val( 2p)     0.99016       0.07443
 
   216    C   44  S      Cor( 1S)     1.99995     -10.99450
   217    C   44  S      Val( 2S)     1.09025      -0.21337
   218    C   44  px     Val( 2p)     0.98656       0.07592
   219    C   44  py     Val( 2p)     0.97376       0.07866
   220    C   44  pz     Val( 2p)     1.02028       0.06945
 
   221    C   45  S      Cor( 1S)     1.99995     -10.99155
   222    C   45  S      Val( 2S)     1.09144      -0.21061
   223    C   45  px     Val( 2p)     1.02191       0.06739
   224    C   45  py     Val( 2p)     0.97282       0.07958
   225    C   45  pz     Val( 2p)     0.99538       0.07955
 
   226    C   46  S      Cor( 1S)     1.99992     -11.02553
   227    C   46  S      Val( 2S)     1.09118      -0.22566
   228    C   46  px     Val( 2p)     1.04415       0.05307
   229    C   46  py     Val( 2p)     0.98850       0.05924
   230    C   46  pz     Val( 2p)     0.84360       0.09415
 
   231    C   47  S      Cor( 1S)     1.99993     -11.00157
   232    C   47  S      Val( 2S)     1.10219      -0.23091
   233    C   47  px     Val( 2p)     1.01652       0.05996
   234    C   47  py     Val( 2p)     0.96563       0.07614
   235    C   47  pz     Val( 2p)     0.98725       0.06578
 
   236    C   48  S      Cor( 1S)     1.99994     -11.01988
[...]
                         Standard Origin              Atomic Origin
 NLMO      Total    Paramagnetic  Diamagnetic   Paramagnetic  Diamagnetic
   88      -0.1569        0.2033      -0.3602        -1.0750       0.9181
   89      -0.4234        0.5110      -0.9345        -1.4930       1.0696
   97       0.3747       -1.4560       1.8307        -0.1347       0.5093
   99      -0.0523        0.0154      -0.0677        -1.0466       0.9943
  102       2.0595       -2.3377       4.3972         1.3199       0.7397
  105       1.2515        0.7127       0.5388         0.3516       0.8999
  106       1.7138        2.4496      -0.7358        -0.0867       1.8005
  107      25.7547        0.4346      25.3201         0.3635      25.3912
  109       0.0037       -1.3381       1.3418        -1.0545       1.0582
 Sum       30.5252       -0.8052      31.3304        -2.8556      33.3807

 Contributions to Isotropic shielding for atom   96 (    32.3894 ppm):
                         Standard Origin              Atomic Origin
 NLMO      Total    Paramagnetic  Diamagnetic   Paramagnetic  Diamagnetic
   89      -0.3228        0.4316      -0.7545        -1.0285       0.7056
   94      -0.1613        1.2870      -1.4483        -0.4403       0.2790
   97       1.2817        0.5701       0.7116         0.3826       0.8991
   98      -0.4903        1.5581      -2.0484        -1.7468       1.2565
  105       1.0338        1.4402      -0.4064         0.0375       0.9963
  106       0.0990        0.9849      -0.8858        -0.9630       1.0620
  108      26.6082       -0.4476      27.0558         0.7324      25.8758
  109       1.6608        4.3022      -2.6414        -0.1622       1.8230
 Sum       29.7091       10.1266      19.5825        -3.1882      32.8973

 Contributions to Isotropic shielding for atom   97 (    32.1673 ppm):
                         Standard Origin              Atomic Origin
 NLMO      Total    Paramagnetic  Diamagnetic   Paramagnetic  Diamagnetic
   94      -0.4203        1.2530      -1.6733        -1.6157       1.1954
   97       1.5246        0.1241       1.4005         0.6906       0.8340
   98      -0.2209        0.9388      -1.1597        -0.3112       0.0903
  105       1.0477        1.1248      -0.0770        -0.0619       1.1097
  106       0.3484        1.2102      -0.8619        -0.4885       0.8368
  107       0.0064        0.7200      -0.7136        -1.0969       1.1033
  108       1.5251        4.3550      -2.8298        -0.2918       1.8169
  109      26.4656       -0.3309      26.7965         0.7233      25.7424
 Sum       30.2767        9.3950      20.8817        -2.4521      32.7288

 Contributions to Isotropic shielding for atom   98 (    32.3041 ppm):
                         Standard Origin              Atomic Origin
 NLMO      Total    Paramagnetic  Diamagnetic   Paramagnetic  Diamagnetic
   71      -0.0499       -1.1163       1.0664        -1.1914       1.1416
   80       0.1877       -1.1518       1.3395        -0.9010       1.0887
   85       1.4268        0.1349       1.2919         0.6503       0.7765
  110       1.1645       -0.9543       2.1188         0.2881       0.8764
  111      25.5238        0.6112      24.9126         0.3301      25.1938
  112       1.9266        0.2489       1.6777        -0.0552       1.9818
  113      -0.0986       -1.1939       1.0953        -1.1942       1.0956
  121       0.0658       -1.0633       1.1291        -0.7248       0.7907
 Sum       30.1467       -4.4846      34.6313        -2.7982      32.9449

 Contributions to Isotropic shielding for atom   99 (    32.9626 ppm):
                         Standard Origin              Atomic Origin
 NLMO      Total    Paramagnetic  Diamagnetic   Paramagnetic  Diamagnetic
   79       0.4331       -0.7696       1.2027        -0.2288       0.6619
   81       0.2409       -0.9860       1.2269        -0.6640       0.9049
   85       0.5463        1.7405      -1.1941        -0.1802       0.7265
   87       0.0019       -1.0867       1.0886        -0.8160       0.8179
  110       0.9146        1.1930      -0.2784         0.2835       0.6311
  111       2.2642       -0.0890       2.3532         0.3790       1.8852
  112      25.9176        0.0819      25.8356         0.4624      25.4552
  114       0.0431       -0.2399       0.2830        -0.9867       1.0298
  115       0.1011       -0.9547       1.0558        -0.4159       0.5170
  118       0.7543       -1.3130       2.0673        -0.0446       0.7989
  120       1.3367       -0.7461       2.0828         0.4682       0.8684
  121      -0.1715       -3.0845       2.9130        -1.1498       0.9783
  123       0.3147       -1.2842       1.5989        -0.4562       0.7709
  126      -0.0657       -1.0486       0.9829        -0.5391       0.4734
  191      -0.6049        1.3691      -1.9740         0.2103      -0.8152
  193      -0.1735        0.8382      -1.0117         0.2229      -0.3964
 Sum       31.8530       -6.3797      38.2326        -3.4547      35.3077

 Contributions to Isotropic shielding for atom  100 (    30.8214 ppm):
                         Standard Origin              Atomic Origin
 NLMO      Total    Paramagnetic  Diamagnetic   Paramagnetic  Diamagnetic
  100       1.3728       -0.2407       1.6135         0.4760       0.8968
  101       0.0963       -0.6535       0.7498        -0.9118       1.0081
  103       0.0310       -1.0653       1.0964        -0.7934       0.8244
  104       0.1260       -0.9155       1.0415        -0.6547       0.7807
  110       1.1056       -1.0627       2.1682         0.2005       0.9051
  111      -0.0111       -0.3837       0.3726        -1.2046       1.1935
  113      25.6052        0.7175      24.8877         0.6915      24.9137
  114       1.2350        1.2525      -0.0174        -0.4915       1.7265
  121       0.0489       -0.9616       1.0105        -0.5648       0.6137
 Sum       29.6097       -3.3130      32.9228        -3.2528      32.8625

 Contributions to Isotropic shielding for atom  101 (    31.5093 ppm):
                         Standard Origin              Atomic Origin
 NLMO      Total    Paramagnetic  Diamagnetic   Paramagnetic  Diamagnetic
   98       0.1561       -1.1960       1.3521        -0.6117       0.7678
   99      -0.0972        0.1055      -0.2028        -1.2102       1.1129
  100      -0.0133        1.5496      -1.5629        -0.5469       0.5336
  104      -0.0437       -2.5589       2.5152        -0.6826       0.6388
  113       1.8050        0.7427       1.0624        -0.1107       1.9157
  114      26.4545        0.1838      26.2707         1.0545      25.4000
  115       0.0758       -1.1069       1.1828        -0.6759       0.7518
  116      -0.4881       -2.3727       1.8846        -0.5910       0.1029
  118       0.4352       -0.6276       1.0628        -0.4106       0.8458
  121       0.2183       -1.9242       2.1425        -0.7741       0.9924
  191      -0.6757        1.1964      -1.8721         0.3178      -0.9935
 Sum       27.8270       -6.0083      33.8352        -4.2413      32.0683

 Contributions to Isotropic shielding for atom  102 (    31.7857 ppm):
                         Standard Origin              Atomic Origin
 NLMO      Total    Paramagnetic  Diamagnetic   Paramagnetic  Diamagnetic
   87       0.3456       -0.8236       1.1692         0.0780       0.2676
   98       1.8769       -1.5414       3.4183         0.9292       0.9477
  108      -0.0674       -1.4759       1.4085        -0.8478       0.7804
  115       1.3124       -0.3370       1.6494         0.4582       0.8542
  116      26.1636        0.3334      25.8302         0.4759      25.6876
  117       1.2536        3.1602      -1.9066        -0.6281       1.8817
  118       0.1889       -0.2887       0.4775        -0.8765       1.0654
  119       0.2984        1.0327      -0.7343        -0.1300       0.4284
  120      -0.1698       -0.7052       0.5353        -1.0493       0.8795
  121       0.3860       -0.8606       1.2466        -1.2784       1.6645
 Sum       31.5881       -1.5061      33.0942        -2.8688      34.4569

 Contributions to Isotropic shielding for atom  103 (    32.0761 ppm):
                         Standard Origin              Atomic Origin
 NLMO      Total    Paramagnetic  Diamagnetic   Paramagnetic  Diamagnetic
   94      -0.2535        1.2945      -1.5479        -1.1001       0.8467
   95      -0.0303       -1.2157       1.1853        -0.8038       0.7734
   97      -0.2233        1.4312      -1.6545        -1.0869       0.8636
   98       0.9191        1.7061      -0.7869        -0.0378       0.9570
  108      -0.0082       -1.4142       1.4060        -0.7796       0.7715
  115       0.3456        3.2878      -2.9422        -0.7576       1.1032
  116       1.9285        2.4721      -0.5436         0.0276       1.9010
  117      26.6186       -0.7712      27.3898         0.8073      25.8112
  119      -0.1573        0.0664      -0.2237        -1.3072       1.1499
 Sum       29.1393        6.8571      22.2822        -5.0381      34.1773

 Contributions to Isotropic shielding for atom  104 (    31.1323 ppm):
                         Standard Origin              Atomic Origin
 NLMO      Total    Paramagnetic  Diamagnetic   Paramagnetic  Diamagnetic
   81      -0.5774        1.2663      -1.8437        -1.2511       0.6737
   82      -0.1387        0.3636      -0.5023        -1.0754       0.9367
   86      -0.4430        1.6338      -2.0768        -1.5467       1.1037
   87       1.4502        1.3455       0.1047         0.4933       0.9568
   92      -0.0367       -1.0895       1.0529        -0.8280       0.7913
  115       0.8473        3.8161      -2.9687        -0.3447       1.1921
  117      -0.1425       -0.1635       0.0210        -1.3143       1.1718
  118       0.2948        4.4148      -4.1200        -0.5961       0.8909
  119      26.0953       -1.2045      27.2998         0.6011      25.4942
  122      -0.1534       -0.5296       0.3762        -1.8420       1.6885
  127      -0.2006       -2.1602       1.9596        -0.6245       0.4239
  193      -0.4571       -0.5465       0.0894         0.5637      -1.0208
 Sum       26.5384        7.1463      19.3921        -7.7646      34.3029

 Contributions to Isotropic shielding for atom  105 (    30.5943 ppm):
                         Standard Origin              Atomic Origin
 NLMO      Total    Paramagnetic  Diamagnetic   Paramagnetic  Diamagnetic
  120      -1.0578        0.5653      -1.6231        -1.9543       0.8965
  121      -0.3137        1.6091      -1.9228        -1.8684       1.5547
  122      -1.0481        0.5696      -1.6177        -1.8325       0.7844
  123       0.7692        1.2980      -0.5288        -0.6944       1.4636
  124      26.2850        0.5425      25.7424         1.0643      25.2207
  125       1.1790        3.8091      -2.6302        -0.8643       2.0433
  126       1.8408       -0.5230       2.3638        -0.0314       1.8722
  191       0.4332       -1.2328       1.6659         1.2126      -0.7795
  193       1.3679       -0.6608       2.0287         1.4289      -0.0610
 Sum       29.4554        5.9771      23.4783        -3.5395      32.9949

 Contributions to Isotropic shielding for atom  106 (    30.5332 ppm):
                         Standard Origin              Atomic Origin
 NLMO      Total    Paramagnetic  Diamagnetic   Paramagnetic  Diamagnetic
  120      -0.4727        0.0369      -0.5095        -1.0909       0.6182
  121       0.0030        0.5956      -0.5926        -1.0272       1.0302
  123       0.6064        2.4445      -1.8382        -1.4676       2.0740
  124       0.8141        3.5711      -2.7570        -1.1722       1.9863
  125      26.0379        0.4221      25.6158         0.8755      25.1624
  126       1.7525        0.0466       1.7059        -0.2429       1.9955
  193       0.6009       -0.8803       1.4813         1.0686      -0.4676
 Sum       29.3421        6.2364      23.1057        -3.0568      32.3989

 Contributions to Isotropic shielding for atom  107 (    30.6985 ppm):
                         Standard Origin              Atomic Origin
 NLMO      Total    Paramagnetic  Diamagnetic   Paramagnetic  Diamagnetic
  120      -0.5741        0.1108      -0.6848        -1.4715       0.8975
  121      -0.0662        0.4467      -0.5129        -1.5976       1.5314
  122      -0.1526        0.3436      -0.4962        -1.0006       0.8480
  123       2.6764       -5.1615       7.8379         1.2617       1.4147
  124       1.4560        0.2318       1.2242        -0.4199       1.8760
  125       1.5810        0.3145       1.2665        -0.4648       2.0458
  126      25.8756        1.0415      24.8342         0.7145      25.1611
  194       0.0563       -0.9768       1.0331        -0.4716       0.5279
 Sum       30.8525       -3.6494      34.5019        -3.4498      34.3023

 Contributions to Isotropic shielding for atom  108 (    30.9665 ppm):
                         Standard Origin              Atomic Origin
 NLMO      Total    Paramagnetic  Diamagnetic   Paramagnetic  Diamagnetic
   76      -0.5967        0.0895      -0.6862        -1.4460       0.8493
   81      -0.6213        1.6504      -2.2717        -1.3512       0.7300
   82       1.2099       -0.8042       2.0141         0.0203       1.1896
   86      -0.2696        0.9477      -1.2173        -1.0790       0.8093
   87      -0.2521        1.0636      -1.3156        -1.1291       0.8770
   92      -0.1185       -1.0770       0.9586        -0.6520       0.5336
  122       0.5555       -0.5043       1.0597        -0.0237       0.5791
  127      25.9806        0.1381      25.8426         0.6338      25.3469
  128       1.7191        3.0500      -1.3309        -0.2650       1.9840
  129       1.1409        2.6569      -1.5160        -0.6896       1.8305
  190       1.4580        0.0441       1.4139         1.4584      -0.0004
  193      -0.8910        0.0885      -0.9795         0.3894      -1.2804
 Sum       29.3148        7.3433      21.9715        -4.1336      33.4484

 Contributions to Isotropic shielding for atom  109 (    30.7426 ppm):
                         Standard Origin              Atomic Origin
 NLMO      Total    Paramagnetic  Diamagnetic   Paramagnetic  Diamagnetic
   75      -0.5647        0.7307      -1.2954        -1.2745       0.7098
   76      -0.9019        0.2310      -1.1329        -2.2639       1.3620
   79      -0.3778        1.1082      -1.4860        -1.0211       0.6433
   82       1.8589       -1.6901       3.5491         0.6070       1.2519
  127       1.5569        3.0699      -1.5130        -0.4114       1.9683
  128      25.9293        0.2863      25.6430         0.6014      25.3279
  129       1.3852        2.0898      -0.7046        -0.4132       1.7984
 Sum       28.8860        5.8259      23.0602        -4.1756      33.0616

 Contributions to Isotropic shielding for atom  110 (    31.9157 ppm):
                         Standard Origin              Atomic Origin
 NLMO      Total    Paramagnetic  Diamagnetic   Paramagnetic  Diamagnetic
   75      -0.3563        0.9953      -1.3516        -0.9684       0.6121
   76      -1.2271        0.4100      -1.6371        -2.4210       1.1939
   79      -0.5754        1.4401      -2.0155        -1.2489       0.6735
   81      -0.3608        0.6659      -1.0267        -0.5698       0.2090
   82       1.7252       -2.0293       3.7545         0.9609       0.7643
   86      -0.1529        0.3457      -0.4986        -1.1657       1.0128
  127       1.7415        3.3959      -1.6544        -0.1744       1.9159
  128       1.8468        2.5357      -0.6889        -0.0521       1.8989
  129      26.6776        0.5455      26.1321         0.9904      25.6872
 Sum       29.3186        8.3046      21.0140        -4.6492      33.9678
 
 1\1\GINC-PCSN02\SP\RHF\STO-3G\C45H56N4O5\ABENIDD\30-May-2024\0\\# nmr=
 giao hf/sto-3g pop=nbo geom=connectivity\\pleiokomenine_C_1a\\0,1\C,0,
 0.,0.,0.\C,0,1.4014,0.,0.\C,0,2.0939,1.2294,0.\C,0,1.4083,2.4526,-0.02
 78\C,0,0.0259,2.4419,-0.0891\C,0,-0.6626,1.2136,-0.055\N,0,-0.863,3.54
 75,-0.2406\C,0,-2.1424,1.499,-0.0655\C,0,-2.0683,2.8802,-0.8087\C,0,-3
 .1256,0.5903,-0.8039\C,0,-1.8104,2.6291,-2.3672\C,0,-2.8901,1.7428,-2.
 9882\C,0,-3.9014,1.3399,-1.91\N,0,-4.1148,0.2316,0.2176\C,0,-4.9661,-0
 .8522,-0.2244\C,0,-5.8111,-0.3138,-1.392\C,0,-4.9744,0.3826,-2.4817\C,
 0,-2.5881,1.3969,1.4167\C,0,-3.3954,0.0971,1.4623\C,0,-4.5167,2.6681,-
 1.3424\C,0,-3.416,3.6331,-0.7858\C,0,-3.826,4.2851,0.5248\O,0,-4.8469,
 4.0336,1.153\O,0,-2.9544,5.2754,0.867\C,0,-3.2555,5.9205,2.1035\C,0,-0
 .3144,4.7473,-0.8518\C,0,2.1533,-1.3118,-0.069\C,0,2.303,-1.8291,-1.48
 5\C,0,1.1905,-2.3485,-2.161\C,0,3.538,-1.7362,-2.1608\C,0,3.6763,-2.15
 97,-3.4914\C,0,2.5722,-2.6721,-4.1493\C,0,1.3369,-2.7373,-3.4817\N,0,2
 .4861,-3.174,-5.4792\C,0,0.2796,-3.1694,-4.4642\C,0,1.2362,-3.9734,-5.
 427\C,0,-0.8844,-4.0727,-4.0366\C,0,1.5548,-5.3875,-4.78\C,0,0.2778,-6
 .2005,-4.5655\C,0,-0.9582,-5.3486,-4.9306\N,0,-2.1331,-3.1982,-4.0692\
 C,0,-3.3885,-3.961,-4.424\C,0,-3.3228,-5.3851,-3.9127\C,0,-2.2445,-6.1
 672,-4.6633\C,0,-0.368,-1.853,-4.9561\C,0,-1.8504,-2.122,-5.0773\C,0,-
 0.7986,-5.0142,-6.4525\C,0,0.5613,-4.3195,-6.7659\C,0,0.4178,-3.1834,-
 7.7609\O,0,-0.6323,-2.6059,-8.0118\O,0,1.6012,-2.9348,-8.3853\C,0,1.56
 06,-1.8469,-9.309\C,0,3.7118,-3.7176,-6.0449\O,0,-2.3102,-2.6231,-2.82
 52\H,0,-0.5615,-0.9294,0.0143\H,0,3.1815,1.2383,0.0004\H,0,1.9666,3.38
 11,-0.0374\H,0,-2.6168,-0.298,-1.2012\H,0,-0.8312,2.1749,-2.5632\H,0,-
 1.7859,3.5884,-2.9016\H,0,-3.3864,2.2764,-3.8082\H,0,-2.4214,0.857,-3.
 4343\H,0,-4.3863,-1.7298,-0.5344\H,0,-5.6407,-1.1679,0.5794\H,0,-6.545
 7,0.4024,-1.0013\H,0,-6.3846,-1.1338,-1.8393\H,0,-4.4791,-0.4001,-3.07
 18\H,0,-5.6389,0.9167,-3.1712\H,0,-3.2309,2.2233,1.717\H,0,-1.7664,1.3
 606,2.1418\H,0,-2.7442,-0.7843,1.4782\H,0,-4.0588,0.0722,2.3318\H,0,-5
 .0564,3.1864,-2.1468\H,0,-5.275,2.4435,-0.5854\H,0,-3.3661,4.4794,-1.4
 881\H,0,-3.2785,5.1945,2.9224\H,0,-2.4634,6.646,2.3083\H,0,-4.2067,6.4
 569,2.0322\H,0,0.2029,4.5334,-1.7938\H,0,0.3898,5.235,-0.1691\H,0,-1.1
 072,5.4714,-1.0629\H,0,1.6371,-2.0672,0.5384\H,0,3.1397,-1.1968,0.3986
 \H,0,0.2126,-2.3954,-1.6887\H,0,4.4031,-1.3152,-1.6528\H,0,4.6364,-2.0
 676,-3.9855\H,0,-0.7872,-4.3807,-2.9858\H,0,2.2358,-5.9582,-5.4252\H,0
 ,2.0814,-5.2965,-3.8219\H,0,0.3122,-7.1125,-5.1754\H,0,0.2295,-6.5317,
 -3.5202\H,0,-4.2234,-3.4075,-3.9794\H,0,-3.5095,-3.9484,-5.5114\H,0,-4
 .2908,-5.8806,-4.0453\H,0,-3.1036,-5.3925,-2.8382\H,0,-2.6641,-6.5204,
 -5.614\H,0,-2.0244,-7.074,-4.0861\H,0,-0.2533,-1.0468,-4.2172\H,0,0.06
 61,-1.455,-5.8754\H,0,-2.4743,-1.2559,-4.8355\H,0,-2.1211,-2.492,-6.06
 46\H,0,-1.654,-4.4374,-6.81\H,0,-0.8356,-5.949,-7.0301\H,0,1.1713,-5.0
 665,-7.2968\H,0,0.8878,-2.078,-10.1406\H,0,2.5686,-1.7035,-9.7077\H,0,
 1.2535,-0.9251,-8.805\H,0,3.5102,-4.2153,-6.9983\H,0,4.4276,-2.9142,-6
 .2491\H,0,4.1848,-4.4482,-5.3789\\Version=ES64L-G16RevB.01\State=1-A\H
 F=-2300.2156585\RMSD=3.947e-09\Dipole=1.0248167,-1.4365372,-2.0717741\
 Quadrupole=-10.2871985,12.1854935,-1.898295,2.1736983,1.5902699,6.1528
 105\PG=C01 [X(C45H56N4O5)]\\@


 FROM WHENCE IT HAPPENS, THAT THEY WHICH TRUST TO BOOKS, DO AS THEY THAT CAST UP MANY LITTLE SUMMS INTO GREATER,
 WITHOUT CONSIDERING WETHER THOSE LITTLE SUMMES WERE RIGHTLY CAST UP OR NOT...
 AND AT LAST FINDING THE ERROUR VISIBLE, AND NOT MISTRUSTING THEIR FIRST GROUNDS,
 KNOW NOT WHICH WAY TO CLEERE THEMSELVES...
 BUT SPEND TIME IN FLUTTERING OVER THEIR BOOKES....
 AS BIRDS THAT ENTERING BY THE CHIMNEY, AND FINDING THEMSELVES INCLOSED IN A CHAMBER,
 FLUTTER AT THE FALSE LIGHT OF A GLASSE WINDOW,
 FOR WANT OF WIT TO CONSIDER WHICH WAY THEY CAME IN....
           LEVIATHAN
 Job cpu time:       0 days  0 hours 12 minutes  3.7 seconds.
 Elapsed time:       0 days  0 hours  2 minutes  1.5 seconds.
 File lengths (MBytes):  RWF=     67 Int=      0 D2E=      0 Chk=     10 Scr=      1
 Normal termination of Gaussian 16 at Thu May 30 09:02:51 2024.
