 Entering Gaussian System, Link 0=g16
 Input=1_pleiokomenine_1a_c_23.gjf
 Output=1_pleiokomenine_1a_c_23.log
 Initial command:
 /opt/gaussian/g16/l1.exe "/data/abenidd/Elvis/pleiokomenine_C/NMR_HF/1a/1_pleiokomenine_1a_c_23/Gau-25517.inp" -scrdir="/data/abenidd/Elvis/pleiokomenine_C/NMR_HF/1a/1_pleiokomenine_1a_c_23/"
 Entering Link 1 = /opt/gaussian/g16/l1.exe PID=     25519.
  
 Copyright (c) 1988-2017, Gaussian, Inc.  All Rights Reserved.
  
 This is part of the Gaussian(R) 16 program.  It is based on
 the Gaussian(R) 09 system (copyright 2009, Gaussian, Inc.),
 the Gaussian(R) 03 system (copyright 2003, Gaussian, Inc.),
 the Gaussian(R) 98 system (copyright 1998, Gaussian, Inc.),
 the Gaussian(R) 94 system (copyright 1995, Gaussian, Inc.),
 the Gaussian 92(TM) system (copyright 1992, Gaussian, Inc.),
 the Gaussian 90(TM) system (copyright 1990, Gaussian, Inc.),
 the Gaussian 88(TM) system (copyright 1988, Gaussian, Inc.),
 the Gaussian 86(TM) system (copyright 1986, Carnegie Mellon
 University), and the Gaussian 82(TM) system (copyright 1983,
 Carnegie Mellon University). Gaussian is a federally registered
 trademark of Gaussian, Inc.
  
 This software contains proprietary and confidential information,
 including trade secrets, belonging to Gaussian, Inc.
  
 This software is provided under written license and may be
 used, copied, transmitted, or stored only in accord with that
 written license.
  
 The following legend is applicable only to US Government
 contracts under FAR:
  
                    RESTRICTED RIGHTS LEGEND
  
 Use, reproduction and disclosure by the US Government is
 subject to restrictions as set forth in subparagraphs (a)
 and (c) of the Commercial Computer Software - Restricted
 Rights clause in FAR 52.227-19.
  
 Gaussian, Inc.
 340 Quinnipiac St., Bldg. 40, Wallingford CT 06492
  
  
 ---------------------------------------------------------------
 Warning -- This program may not be used in any manner that
 competes with the business of Gaussian, Inc. or will provide
 assistance to any competitor of Gaussian, Inc.  The licensee
 of this program is prohibited from giving any competitor of
 Gaussian, Inc. access to this program.  By using this program,
 the user acknowledges that Gaussian, Inc. is engaged in the
 business of creating and licensing software in the field of
 computational chemistry and represents and warrants to the
 licensee that it is not a competitor of Gaussian, Inc. and that
 it will not use this program in any manner prohibited above.
 ---------------------------------------------------------------
  

 Cite this work as:
 Gaussian 16, Revision B.01,
 M. J. Frisch, G. W. Trucks, H. B. Schlegel, G. E. Scuseria, 
 M. A. Robb, J. R. Cheeseman, G. Scalmani, V. Barone, 
 G. A. Petersson, H. Nakatsuji, X. Li, M. Caricato, A. V. Marenich, 
 J. Bloino, B. G. Janesko, R. Gomperts, B. Mennucci, H. P. Hratchian, 
 J. V. Ortiz, A. F. Izmaylov, J. L. Sonnenberg, D. Williams-Young, 
 F. Ding, F. Lipparini, F. Egidi, J. Goings, B. Peng, A. Petrone, 
 T. Henderson, D. Ranasinghe, V. G. Zakrzewski, J. Gao, N. Rega, 
 G. Zheng, W. Liang, M. Hada, M. Ehara, K. Toyota, R. Fukuda, 
 J. Hasegawa, M. Ishida, T. Nakajima, Y. Honda, O. Kitao, H. Nakai, 
 T. Vreven, K. Throssell, J. A. Montgomery, Jr., J. E. Peralta, 
 F. Ogliaro, M. J. Bearpark, J. J. Heyd, E. N. Brothers, K. N. Kudin, 
 V. N. Staroverov, T. A. Keith, R. Kobayashi, J. Normand, 
 K. Raghavachari, A. P. Rendell, J. C. Burant, S. S. Iyengar, 
 J. Tomasi, M. Cossi, J. M. Millam, M. Klene, C. Adamo, R. Cammi, 
 J. W. Ochterski, R. L. Martin, K. Morokuma, O. Farkas, 
 J. B. Foresman, and D. J. Fox, Gaussian, Inc., Wallingford CT, 2016.
 
 ******************************************
 Gaussian 16:  ES64L-G16RevB.01 20-Dec-2017
                30-May-2024 
 ******************************************
 %nprocshared=8
 Will use up to    8 processors via shared memory.
 ----------------------------------------------
 # nmr=giao hf/sto-3g pop=nbo geom=connectivity
 ----------------------------------------------
 1/38=1,57=2,172=1/1;
 2/12=2,17=6,18=5,40=1/2;
 3/6=3,11=9,25=1,30=1/1,2,3,8;
 4//1;
 5/5=2,38=5/2;
 8/6=1,10=90,11=11/1;
 10/13=100,45=16/2;
 6/7=2,8=2,9=2,10=2,28=1,40=1,64=1/1,7;
 99/9=1/99;
 ------------------
 pleiokomenine_C_1a
 ------------------
 Symbolic Z-matrix:
 Charge =  0 Multiplicity = 1
 C                     0.        0.        0. 
 C                     1.4004    0.        0. 
 C                     2.0934    1.2285    0. 
 C                     1.4074    2.4503   -0.0298 
 C                     0.0242    2.4404   -0.0892 
 C                    -0.663     1.2153   -0.0494 
 N                    -0.8588    3.5474   -0.2341 
 C                    -2.1455    1.4847   -0.0657 
 C                    -2.0845    2.8941   -0.772 
 C                    -3.0932    0.5643   -0.8496 
 C                    -1.9184    2.6762   -2.3405 
 C                    -3.1173    1.9211   -2.9275 
 C                    -4.0149    1.43     -1.7753 
 N                    -3.7809   -0.2209    0.1812 
 C                    -4.9651   -0.9296   -0.2776 
 C                    -5.9165   -0.1093   -1.1482 
 C                    -5.1747    0.5708   -2.2989 
 C                    -2.6259    1.3826    1.402 
 C                    -3.9368    0.6076    1.3638 
 C                    -4.5553    2.731    -1.0892 
 C                    -3.4054    3.6724   -0.6372 
 C                    -3.6868    4.3223    0.7061 
 O                    -4.5351    3.9489    1.507 
 O                    -2.9203    5.4373    0.8721 
 C                    -3.0957    6.0853    2.1313 
 C                    -0.3072    4.7369   -0.8644 
 C                     2.1539   -1.3093   -0.0757 
 C                     2.5445   -1.6912   -1.4891 
 C                     1.556    -1.9139   -2.4589 
 C                     3.9037   -1.8004   -1.8521 
 C                     4.2861   -2.1275   -3.161 
 C                     3.3036   -2.3518   -4.1091 
 C                     1.9496   -2.2223   -3.7508 
 N                     3.4614   -2.723    -5.4751 
 C                     1.1061   -2.3702   -4.9916 
 C                     2.1204   -3.2695   -5.8002 
 C                    -0.2628   -3.064    -4.9531 
 C                     2.0307   -4.7624   -5.2674 
 C                     0.623    -5.3311   -5.4431 
 C                    -0.3249   -4.2366   -5.9803 
 N                    -1.3013   -1.9698   -5.178 
 C                    -2.532    -2.4524   -5.9097 
 C                    -2.8418   -3.8928   -5.5605 
 C                    -1.7546   -4.816    -6.1104 
 C                     0.8303   -0.9222   -5.4598 
 C                    -0.5988   -0.8917   -5.9514 
 C                     0.2563   -3.8286   -7.3765 
 C                     1.7465   -3.3818   -7.2887 
 C                     2.0423   -2.1689   -8.1506 
 O                     1.197    -1.3871   -8.5669 
 O                     3.3673   -2.1027   -8.4544 
 C                     3.7359   -0.9614   -9.229 
 C                     4.678    -3.4478   -5.8111 
 O                    -1.6973   -1.4687   -3.9547 
 H                    -0.5649   -0.9283    0.0068 
 H                     3.1811    1.2358   -0.0031 
 H                     1.9665    3.3781   -0.0416 
 H                    -2.5291   -0.1417   -1.4732 
 H                    -1.0004    2.1257   -2.5815 
 H                    -1.8212    3.6406   -2.8555 
 H                    -3.6788    2.5785   -3.6033 
 H                    -2.7616    1.0854   -3.5413 
 H                    -4.6273   -1.7937   -0.8645 
 H                    -5.5121   -1.3525    0.5739 
 H                    -6.6894   -0.7695   -1.5591 
 H                    -6.4391    0.6338   -0.5361 
 H                    -4.7893   -0.2022   -2.9768 
 H                    -5.8761    1.1778   -2.8836 
 H                    -1.9204    0.795     2.0077 
 H                    -2.7119    2.3393    1.9164 
 H                    -4.0518   -0.003     2.2658 
 H                    -4.7978    1.2753    1.3122 
 H                    -5.2385    2.4955   -0.2731 
 H                    -5.1768    3.2821   -1.8098 
 H                    -3.4005    4.5157   -1.3451 
 H                    -2.8706    5.3986    2.9534 
 H                    -2.3955    6.9237    2.1809 
 H                    -4.1134    6.4778    2.2198 
 H                     0.1999    4.5078   -1.8085 
 H                     0.4062    5.2279   -0.1938 
 H                    -1.0964    5.4643   -1.0773 
 H                     3.0435   -1.243     0.564 
 H                     1.5498   -2.1195    0.3535 
 H                     0.4997   -1.7978   -2.226 
 H                     4.6792   -1.6182   -1.1111 
 H                     5.3385   -2.1947   -3.4102 
 H                    -0.4836   -3.4573   -3.9506 
 H                     2.3159   -4.8446   -4.2113 
 H                     2.7426   -5.4031   -5.8043 
 H                     0.6521   -6.1877   -6.1288 
 H                     0.2658   -5.7199   -4.4808 
 H                    -3.3479   -1.7801   -5.6207 
 H                    -2.3649   -2.3443   -6.9855 
 H                    -2.9114   -4.0124   -4.4725 
 H                    -3.8123   -4.1842   -5.977 
 H                    -1.8402   -5.7798   -5.593 
 H                    -1.9739   -5.0296   -7.1644 
 H                     1.5396   -0.5474   -6.2005 
 H                     0.8913   -0.2106   -4.6239 
 H                    -0.6728   -1.1228   -7.0126 
 H                    -1.1082    0.0571   -5.7538 
 H                    -0.3766   -3.076    -7.851 
 H                     0.2077   -4.6952   -8.0515 
 H                     2.3355   -4.1894   -7.7502 
 H                     3.2604   -0.9996   -10.2139 
 H                     4.8205   -0.9813   -9.3662 
 H                     3.4705   -0.038    -8.7045 
 H                     4.6336   -3.8236   -6.8378 
 H                     5.5469   -2.7837   -5.7517 
 H                     4.8447   -4.3042   -5.148 
 
 Stoichiometry    C45H56N4O5
 Framework group  C1[X(C45H56N4O5)]
 Deg. of freedom   324
 Full point group                 C1      NOp   1
 Largest Abelian subgroup         C1      NOp   1
 Largest concise Abelian subgroup C1      NOp   1
                         Standard orientation:                         
 ---------------------------------------------------------------------
 Center     Atomic      Atomic             Coordinates (Angstroms)
 Number     Number       Type             X           Y           Z
 ---------------------------------------------------------------------
      1          6           0       -1.840376   -1.618663   -1.716182
      2          6           0       -1.165635   -2.845756   -1.725593
      3          6           0       -1.549721   -3.854789   -0.817964
      4          6           0       -2.574865   -3.642744    0.113915
      5          6           0       -3.196750   -2.406465    0.155638
      6          6           0       -2.837842   -1.417710   -0.776159
      7          7           0       -4.174569   -1.943523    1.080672
      8          6           0       -3.698946   -0.201020   -0.555224
      9          6           0       -4.032125   -0.465492    0.963998
     10          6           0       -3.105839    1.207826   -0.707369
     11          6           0       -2.800673    0.015280    1.851492
     12          6           0       -2.553763    1.520498    1.691924
     13          6           0       -3.451495    2.059903    0.561637
     14          7           0       -3.651290    1.702456   -1.976164
     15          6           0       -3.508117    3.134250   -2.187230
     16          6           0       -3.877525    4.007702   -0.988640
     17          6           0       -3.166299    3.542471    0.282042
     18          6           0       -4.829000   -0.266058   -1.610732
     19          6           0       -4.982735    1.149601   -2.151857
     20          6           0       -4.920184    1.865125    1.071913
     21          6           0       -5.211443    0.389685    1.460567
     22          6           0       -6.603895   -0.051655    1.045468
     23          8           0       -7.317299    0.530372    0.237519
     24          8           0       -6.994615   -1.146713    1.757148
     25          6           0       -8.279975   -1.650553    1.396248
     26          6           0       -4.192469   -2.592853    2.382402
     27          6           0        0.012051   -3.050996   -2.652250
     28          6           0        1.346255   -2.768188   -1.991921
     29          6           0        1.633313   -1.485998   -1.501182
     30          6           0        2.301968   -3.795008   -1.839047
     31          6           0        3.531967   -3.559918   -1.207952
     32          6           0        3.808682   -2.290141   -0.732974
     33          6           0        2.846679   -1.272853   -0.867661
     34          7           0        4.993518   -1.823617   -0.094879
     35          6           0        3.336820   -0.046283   -0.140860
     36          6           0        4.879053   -0.354789   -0.273980
     37          6           0        3.057606    1.366500   -0.672662
     38          6           0        5.360483    0.023537   -1.738823
     39          6           0        5.129312    1.505202   -2.034015
     40          6           0        4.383660    2.167926   -0.855105
     41          7           0        2.064577    1.998194    0.297488
     42          6           0        2.231379    3.493357    0.437397
     43          6           0        2.695949    4.112346   -0.864024
     44          6           0        4.118370    3.656231   -1.188633
     45          6           0        2.663349   -0.112517    1.249834
     46          6           0        2.277920    1.303712    1.611311
     47          6           0        5.336819    2.019288    0.379005
     48          6           0        5.736373    0.536307    0.641986
     49          6           0        5.732759    0.185424    2.117914
     50          8           0        5.140362    0.817733    2.982956
     51          8           0        6.530831   -0.889745    2.361624
     52          6           0        6.547142   -1.311895    3.725428
     53          6           0        6.222678   -2.533700   -0.416274
     54          8           0        0.782221    1.748404   -0.146976
     55          1           0       -1.574458   -0.822467   -2.406297
     56          1           0       -1.027888   -4.809171   -0.817776
     57          1           0       -2.840020   -4.431925    0.807046
     58          1           0       -2.014280    1.165117   -0.817812
     59          1           0       -1.879278   -0.523781    1.597918
     60          1           0       -2.981233   -0.203065    2.911900
     61          1           0       -2.767288    2.036646    2.636467
     62          1           0       -1.493212    1.699351    1.480002
     63          1           0       -2.457156    3.328557   -2.438136
     64          1           0       -4.080456    3.450548   -3.067850
     65          1           0       -3.595799    5.046284   -1.198532
     66          1           0       -4.963262    4.005982   -0.843223
     67          1           0       -2.086232    3.697475    0.159409
     68          1           0       -3.477254    4.165451    1.129088
     69          1           0       -4.541119   -0.906408   -2.457463
     70          1           0       -5.765424   -0.685634   -1.244200
     71          1           0       -5.270198    1.130880   -3.208586
     72          1           0       -5.754124    1.703929   -1.615679
     73          1           0       -5.644558    2.252003    0.355080
     74          1           0       -5.071242    2.484468    1.967923
     75          1           0       -5.239755    0.360087    2.560850
     76          1           0       -8.306929   -1.914121    0.334231
     77          1           0       -8.464984   -2.555860    1.980923
     78          1           0       -9.057498   -0.918488    1.635290
     79          1           0       -3.197840   -2.628175    2.841127
     80          1           0       -4.573534   -3.615861    2.293125
     81          1           0       -4.858842   -2.063886    3.070453
     82          1           0       -0.015730   -4.078560   -3.037400
     83          1           0       -0.085726   -2.408553   -3.537281
     84          1           0        0.904453   -0.680809   -1.563840
     85          1           0        2.085336   -4.796347   -2.205203
     86          1           0        4.241011   -4.371914   -1.098039
     87          1           0        2.526550    1.333850   -1.634617
     88          1           0        4.856413   -0.573208   -2.509051
     89          1           0        6.428484   -0.200718   -1.859831
     90          1           0        6.091659    2.002515   -2.211111
     91          1           0        4.556152    1.604827   -2.964790
     92          1           0        1.256654    3.886132    0.748589
     93          1           0        2.951101    3.692278    1.237012
     94          1           0        2.021960    3.827435   -1.681004
     95          1           0        2.670582    5.205435   -0.794966
     96          1           0        4.302602    3.863366   -2.250280
     97          1           0        4.825699    4.291234   -0.639916
     98          1           0        3.269658   -0.594507    2.019441
     99          1           0        1.731093   -0.694508    1.218058
    100          1           0        3.070186    1.819668    2.150878
    101          1           0        1.348950    1.369829    2.186983
    102          1           0        4.901824    2.495629    1.259913
    103          1           0        6.260587    2.584170    0.187840
    104          1           0        6.793474    0.447647    0.347368
    105          1           0        6.983402   -0.534217    4.359843
    106          1           0        7.170932   -2.207210    3.795244
    107          1           0        5.537148   -1.566955    4.061673
    108          1           0        7.091250   -2.008563   -0.007465
    109          1           0        6.214421   -3.533291    0.031269
    110          1           0        6.370577   -2.634327   -1.497436
 ---------------------------------------------------------------------
 Rotational constants (GHZ):           0.0977004           0.0326548           0.0293949
 Standard basis: STO-3G (5D, 7F)
 There are   326 symmetry adapted cartesian basis functions of A   symmetry.
 There are   326 symmetry adapted basis functions of A   symmetry.
   326 basis functions,   978 primitive gaussians,   326 cartesian basis functions
   197 alpha electrons      197 beta electrons
       nuclear repulsion energy      8144.0334560746 Hartrees.
 NAtoms=  110 NActive=  110 NUniq=  110 SFac= 1.00D+00 NAtFMM=   60 NAOKFM=T Big=T
 Integral buffers will be    131072 words long.
 Raffenetti 1 integral format.
 Two-electron integral symmetry is turned on.
 One-electron integrals computed using PRISM.
 NBasis=   326 RedAO= T EigKep=  1.72D-01  NBF=   326
 NBsUse=   326 1.00D-06 EigRej= -1.00D+00 NBFU=   326
 ExpMin= 1.69D-01 ExpMax= 1.31D+02 ExpMxC= 1.31D+02 IAcc=3 IRadAn=         5 AccDes= 0.00D+00
 Harris functional with IExCor=  205 and IRadAn=       5 diagonalized for initial guess.
 HarFok:  IExCor=  205 AccDes= 0.00D+00 IRadAn=         5 IDoV= 1 UseB2=F ITyADJ=14
 ICtDFT=  3500011 ScaDFX=  1.000000  1.000000  1.000000  1.000000
 FoFCou: FMM=F IPFlag=           0 FMFlag=      100000 FMFlg1=        2001
         NFxFlg=           0 DoJE=T BraDBF=F KetDBF=T FulRan=T
         wScrn=  0.000000 ICntrl=       500 IOpCl=  0 I1Cent=   200000004 NGrid=           0
         NMat0=    1 NMatS0=      1 NMatT0=    0 NMatD0=    1 NMtDS0=    0 NMtDT0=    0
 Petite list used in FoFCou.
 Requested convergence on RMS density matrix=1.00D-08 within 128 cycles.
 Requested convergence on MAX density matrix=1.00D-06.
 Requested convergence on             energy=1.00D-06.
 No special actions if energy rises.
 Integral accuracy reduced to 1.0D-05 until final iterations.
 Initial convergence to 1.0D-05 achieved.  Increase integral accuracy.
 SCF Done:  E(RHF) =  -2300.22093594     A.U. after   16 cycles
            NFock= 16  Conv=0.35D-08     -V/T= 2.0092
 Range of M.O.s used for correlation:     1   326
 NBasis=   326 NAE=   197 NBE=   197 NFC=     0 NFV=     0
 NROrb=    326 NOA=   197 NOB=   197 NVA=   129 NVB=   129
          Differentiating once with respect to magnetic field using GIAOs.
          Electric field/nuclear overlap derivatives assumed to be zero.
 FoFCou: FMM=F IPFlag=           0 FMFlag=      100000 FMFlg1=        2001
         NFxFlg=           0 DoJE=F BraDBF=F KetDBF=T FulRan=T
         wScrn=  0.000000 ICntrl=      6100 IOpCl=  0 I1Cent=           7 NGrid=         110
         NMat0=    1 NMatS0=      1 NMatT0=    0 NMatD0=    1 NMtDS0=    0 NMtDT0=    0
 Symmetry not used in FoFCou.
 FoFJK:  IHMeth= 1 ICntrl=    6127 DoSepK=F KAlg= 0 I1Cent=           0 FoldK=F
 IRaf=         1 NMat=       1 IRICut=       1 DoRegI=T DoRafI=F ISym2E= 0 IDoP0=0 IntGTp=1.
          There are     3 degrees of freedom in the 1st order CPHF.  IDoFFX=0 NUNeed=     3.
      3 vectors produced by pass  0 Test12= 8.47D-13 3.33D-08 XBig12= 1.78D+02 1.88D+00.
 AX will form     3 AO Fock derivatives at one time.
      3 vectors produced by pass  1 Test12= 8.47D-13 3.33D-08 XBig12= 6.98D-01 3.00D-01.
      3 vectors produced by pass  2 Test12= 8.47D-13 3.33D-08 XBig12= 1.96D-02 3.57D-02.
      3 vectors produced by pass  3 Test12= 8.47D-13 3.33D-08 XBig12= 6.19D-04 9.23D-03.
      3 vectors produced by pass  4 Test12= 8.47D-13 3.33D-08 XBig12= 2.21D-05 9.43D-04.
      3 vectors produced by pass  5 Test12= 8.47D-13 3.33D-08 XBig12= 3.37D-07 8.47D-05.
      3 vectors produced by pass  6 Test12= 8.47D-13 3.33D-08 XBig12= 9.45D-09 2.24D-05.
      3 vectors produced by pass  7 Test12= 8.47D-13 3.33D-08 XBig12= 3.85D-10 4.27D-06.
      3 vectors produced by pass  8 Test12= 8.47D-13 3.33D-08 XBig12= 7.69D-12 3.89D-07.
      2 vectors produced by pass  9 Test12= 8.47D-13 3.33D-08 XBig12= 1.43D-13 8.03D-08.
 InvSVY:  IOpt=1 It=  1 EMax= 7.11D-15
 Solved reduced A of dimension    29 with     3 vectors.
 Calculating GIAO nuclear magnetic shielding tensors.
 SCF GIAO Magnetic shielding tensor (ppm):
      1  C    Isotropic =   123.6048   Anisotropy =   148.8151
   XX=   156.0511   YX=    12.8677   ZX=    61.3499
   XY=     8.4029   YY=    82.8444   ZY=    67.6967
   XZ=    53.3546   YZ=    65.7708   ZZ=   131.9190
   Eigenvalues:    30.8089   117.1907   222.8149
      2  C    Isotropic =   120.7799   Anisotropy =   158.9682
   XX=   120.6032   YX=    39.4781   ZX=    80.4189
   XY=    37.3633   YY=   112.4573   ZY=    28.6502
   XZ=    84.3612   YZ=    27.7581   ZZ=   129.2791
   Eigenvalues:    41.2033    94.3777   226.7587
      3  C    Isotropic =   119.8982   Anisotropy =   154.4326
   XX=   135.3845   YX=    61.9514   ZX=    54.5867
   XY=    61.1964   YY=    63.7264   ZY=    26.5514
   XZ=    45.0331   YZ=    28.6296   ZZ=   160.5836
   Eigenvalues:    28.3083   108.5330   222.8532
      4  C    Isotropic =   133.9159   Anisotropy =   143.5388
   XX=   168.0607   YX=    17.4550   ZX=    56.1814
   XY=    16.8088   YY=    98.5217   ZY=    52.0949
   XZ=    55.6488   YZ=    65.2786   ZZ=   135.1652
   Eigenvalues:    51.3360   120.8033   229.6085
      5  C    Isotropic =   108.2056   Anisotropy =   129.1137
   XX=   122.0243   YX=    37.7838   ZX=    64.8580
   XY=    26.0036   YY=   103.7376   ZY=    19.9085
   XZ=    71.9068   YZ=    16.6442   ZZ=    98.8549
   Eigenvalues:    40.2722    90.0632   194.2814
      6  C    Isotropic =   116.7983   Anisotropy =   143.1606
   XX=   139.3208   YX=    31.5253   ZX=    59.8774
   XY=    44.4803   YY=    65.2305   ZY=    27.7983
   XZ=    51.7651   YZ=    23.7409   ZZ=   145.8435
   Eigenvalues:    49.1354    89.0207   212.2387
      7  N    Isotropic =   272.9341   Anisotropy =    80.5374
   XX=   265.9817   YX=   -12.7572   ZX=   -35.2669
   XY=   -19.4146   YY=   276.4087   ZY=    40.7669
   XZ=   -19.4359   YZ=    28.1616   ZZ=   276.4117
   Eigenvalues:   237.7935   254.3830   326.6257
      8  C    Isotropic =   196.0591   Anisotropy =    12.3864
   XX=   197.8534   YX=     0.3281   ZX=     2.6114
   XY=     7.0705   YY=   196.4334   ZY=    -6.4409
   XZ=    -1.6222   YZ=    -9.6042   ZZ=   193.8906
   Eigenvalues:   186.3464   197.5143   204.3167
      9  C    Isotropic =   180.6264   Anisotropy =    44.8895
   XX=   162.1656   YX=     9.3793   ZX=    -7.7332
   XY=    -4.8757   YY=   207.6449   ZY=   -10.1637
   XZ=   -19.9612   YZ=    -8.2211   ZZ=   172.0686
   Eigenvalues:   152.1856   179.1408   210.5527
     10  C    Isotropic =   190.2049   Anisotropy =    29.5602
   XX=   180.7436   YX=    -2.3516   ZX=    10.2998
   XY=    -3.8264   YY=   193.7571   ZY=    -9.3836
   XZ=    14.8008   YZ=   -11.0157   ZZ=   196.1139
   Eigenvalues:   173.3986   187.3044   209.9117
     11  C    Isotropic =   213.6613   Anisotropy =    19.9741
   XX=   218.4269   YX=     2.7679   ZX=    11.1962
   XY=     8.8946   YY=   211.6674   ZY=     2.2020
   XZ=     6.8682   YZ=     2.7056   ZZ=   210.8895
   Eigenvalues:   204.5945   209.4120   226.9773
     12  C    Isotropic =   213.4192   Anisotropy =    20.0111
   XX=   213.5694   YX=    -2.6814   ZX=     8.2236
   XY=    -4.5632   YY=   212.1224   ZY=    -8.3260
   XZ=     8.2817   YZ=    -6.7291   ZZ=   214.5659
   Eigenvalues:   204.3157   209.1821   226.7600
     13  C    Isotropic =   213.4563   Anisotropy =     9.5778
   XX=   218.0942   YX=     2.8524   ZX=     2.2785
   XY=     2.7394   YY=   215.0700   ZY=     1.5720
   XZ=    -2.1444   YZ=     2.0920   ZZ=   207.2046
   Eigenvalues:   206.7710   213.7563   219.8415
     14  N    Isotropic =   303.3176   Anisotropy =    56.7401
   XX=   308.8771   YX=    28.1010   ZX=    37.7827
   XY=    15.2271   YY=   306.3747   ZY=   -28.0739
   XZ=    34.5227   YZ=   -42.3878   ZZ=   294.7010
   Eigenvalues:   239.6643   329.1441   341.1443
     15  C    Isotropic =   205.2171   Anisotropy =    33.7814
   XX=   190.1946   YX=     2.8826   ZX=    -3.3738
   XY=     7.0024   YY=   225.4918   ZY=    -5.7456
   XZ=    -4.9478   YZ=    -6.3618   ZZ=   199.9649
   Eigenvalues:   188.4653   199.4480   227.7381
     16  C    Isotropic =   223.9828   Anisotropy =     8.1329
   XX=   219.5565   YX=     1.8300   ZX=     0.4304
   XY=    -3.1284   YY=   223.8892   ZY=    -1.5654
   XZ=     1.6005   YZ=    -2.4786   ZZ=   228.5026
   Eigenvalues:   219.3988   223.1448   229.4047
     17  C    Isotropic =   215.2942   Anisotropy =    18.8926
   XX=   210.5173   YX=     0.5390   ZX=    -0.2911
   XY=     3.7625   YY=   224.7241   ZY=    -9.1881
   XZ=     0.6593   YZ=    -4.9988   ZZ=   210.6412
   Eigenvalues:   207.3547   210.6387   227.8893
     18  C    Isotropic =   210.6602   Anisotropy =    36.9083
   XX=   209.7294   YX=   -10.1993   ZX=    23.7582
   XY=    -2.6880   YY=   211.7055   ZY=    -5.3632
   XZ=    20.5446   YZ=    -5.4346   ZZ=   210.5457
   Eigenvalues:   187.9524   208.7625   235.2657
     19  C    Isotropic =   199.9508   Anisotropy =    42.8884
   XX=   212.7400   YX=    18.7484   ZX=    16.1541
   XY=    19.3193   YY=   203.2032   ZY=    -6.2816
   XZ=     9.2969   YZ=    -6.1488   ZZ=   183.9092
   Eigenvalues:   172.7917   198.5176   228.5430
     20  C    Isotropic =   212.1051   Anisotropy =    22.1844
   XX=   220.3132   YX=     6.9114   ZX=    -7.6566
   XY=     7.5064   YY=   214.7559   ZY=    -0.8243
   XZ=    -8.0096   YZ=     1.3388   ZZ=   201.2461
   Eigenvalues:   197.9648   211.4557   226.8947
     21  C    Isotropic =   208.9064   Anisotropy =    11.7514
   XX=   216.7076   YX=     4.4348   ZX=    -1.9905
   XY=    -3.6782   YY=   208.3035   ZY=     5.0004
   XZ=     0.6227   YZ=     6.6966   ZZ=   201.7082
   Eigenvalues:   198.2587   211.7199   216.7407
     22  C    Isotropic =    96.1429   Anisotropy =    98.9179
   XX=    66.5319   YX=   -83.8573   ZX=    17.3527
   XY=  -100.0619   YY=    73.4872   ZY=    16.9747
   XZ=    30.5945   YZ=    27.3942   ZZ=   148.4096
   Eigenvalues:   -28.0592   154.3998   162.0882
     23  O    Isotropic =  -134.0520   Anisotropy =   886.0541
   XX=  -263.7629   YX=   -76.5305   ZX=  -302.1482
   XY=   -82.0584   YY=  -121.3544   ZY=   419.0789
   XZ=  -282.7224   YZ=   415.6189   ZZ=   -17.0386
   Eigenvalues:  -569.5033  -289.3034   456.6507
     24  O    Isotropic =   284.4619   Anisotropy =   139.4831
   XX=   163.3036   YX=   -70.7199   ZX=   -58.1633
   XY=    48.3008   YY=   369.0381   ZY=    12.8479
   XZ=  -127.4713   YZ=   -45.0681   ZZ=   321.0439
   Eigenvalues:   119.2223   356.7127   377.4507
     25  C    Isotropic =   197.4589   Anisotropy =    57.8116
   XX=   225.3391   YX=    20.3484   ZX=     8.8523
   XY=    20.7350   YY=   186.6956   ZY=     4.7915
   XZ=     9.0085   YZ=     4.0818   ZZ=   180.3420
   Eigenvalues:   177.5482   178.8285   236.0000
     26  C    Isotropic =   209.8745   Anisotropy =    40.7213
   XX=   200.4031   YX=     0.7991   ZX=    -2.9439
   XY=     3.4044   YY=   203.3374   ZY=   -19.3100
   XZ=    -2.8866   YZ=   -18.6217   ZZ=   225.8831
   Eigenvalues:   192.5276   200.0740   237.0221
     27  C    Isotropic =   206.3504   Anisotropy =    16.4443
   XX=   216.8725   YX=    -0.5516   ZX=    -3.5508
   XY=    -1.4664   YY=   199.1196   ZY=     5.2156
   XZ=    -0.3851   YZ=     4.4114   ZZ=   203.0592
   Eigenvalues:   195.8852   205.8528   217.3133
     28  C    Isotropic =   118.8406   Anisotropy =   159.0621
   XX=    70.8120   YX=     1.1606   ZX=   -71.8408
   XY=     3.1678   YY=    97.8919   ZY=   -33.5099
   XZ=   -58.8034   YZ=   -33.6328   ZZ=   187.8179
   Eigenvalues:    39.0458    92.5939   224.8820
     29  C    Isotropic =   123.1993   Anisotropy =   156.4336
   XX=    96.4267   YX=    51.5187   ZX=   -48.5315
   XY=    52.5076   YY=    75.4731   ZY=   -22.6144
   XZ=   -39.3787   YZ=   -31.4247   ZZ=   197.6980
   Eigenvalues:    32.5499   109.5596   227.4884
     30  C    Isotropic =   119.0680   Anisotropy =   149.0040
   XX=   124.5768   YX=    -8.1542   ZX=   -47.4278
   XY=    -7.2568   YY=    46.9306   ZY=   -50.0081
   XZ=   -43.4140   YZ=   -43.0400   ZZ=   185.6967
   Eigenvalues:    27.8914   110.9086   218.4040
     31  C    Isotropic =   133.9123   Anisotropy =   141.9089
   XX=   111.6406   YX=    48.6774   ZX=   -42.1142
   XY=    40.5629   YY=    88.3918   ZY=   -19.8743
   XZ=   -44.9948   YZ=   -19.0561   ZZ=   201.7045
   Eigenvalues:    52.9034   120.3154   228.5182
     32  C    Isotropic =   109.5359   Anisotropy =   125.5475
   XX=    68.9065   YX=     4.3929   ZX=   -54.0769
   XY=    10.7400   YY=   101.9299   ZY=   -21.1111
   XZ=   -55.0255   YZ=   -36.9700   ZZ=   157.7714
   Eigenvalues:    42.3883    92.9852   193.2343
     33  C    Isotropic =   118.8505   Anisotropy =   137.3009
   XX=   122.7295   YX=     9.4171   ZX=   -44.5037
   XY=     8.4451   YY=    62.0557   ZY=   -42.3955
   XZ=   -50.8252   YZ=   -34.4278   ZZ=   171.7663
   Eigenvalues:    49.3419    96.8252   210.3844
     34  N    Isotropic =   274.5507   Anisotropy =    82.0935
   XX=   297.3342   YX=    29.8836   ZX=     9.3645
   XY=    46.5055   YY=   275.5146   ZY=     5.9496
   XZ=    21.1494   YZ=     5.5912   ZZ=   250.8032
   Eigenvalues:   242.6665   251.7057   329.2797
     35  C    Isotropic =   196.5432   Anisotropy =    15.8587
   XX=   196.0263   YX=   -10.7712   ZX=     1.7310
   XY=    -8.5657   YY=   198.0932   ZY=    -5.4712
   XZ=    -0.1474   YZ=     1.6187   ZZ=   195.5100
   Eigenvalues:   187.2755   195.2384   207.1156
     36  C    Isotropic =   181.5673   Anisotropy =    43.1082
   XX=   181.5448   YX=    -9.1722   ZX=    14.1153
   XY=    -7.1294   YY=   207.5105   ZY=     4.7469
   XZ=     2.4292   YZ=   -10.1366   ZZ=   155.6468
   Eigenvalues:   153.2283   181.1677   210.3061
     37  C    Isotropic =   179.3287   Anisotropy =    50.8537
   XX=   182.0027   YX=   -15.0441   ZX=   -21.1958
   XY=   -22.1604   YY=   172.1471   ZY=    12.6582
   XZ=   -16.2264   YZ=    11.7647   ZZ=   183.8363
   Eigenvalues:   157.6067   167.1482   213.2312
     38  C    Isotropic =   213.8115   Anisotropy =    19.7397
   XX=   207.6902   YX=     1.8958   ZX=    -4.9402
   XY=    -0.3278   YY=   211.5054   ZY=    -8.3205
   XZ=    -9.4272   YZ=    -2.3612   ZZ=   222.2390
   Eigenvalues:   204.4450   210.0183   226.9714
     39  C    Isotropic =   212.2082   Anisotropy =    22.2802
   XX=   205.1581   YX=    -9.2516   ZX=    -8.6422
   XY=    -8.3435   YY=   215.8201   ZY=     5.8611
   XZ=    -8.3299   YZ=     3.1522   ZZ=   215.6464
   Eigenvalues:   198.3367   211.2263   227.0617
     40  C    Isotropic =   211.7621   Anisotropy =     9.9206
   XX=   212.5765   YX=     0.5086   ZX=     0.5798
   XY=     0.4364   YY=   217.8497   ZY=    -1.9689
   XZ=     0.3722   YZ=    -3.2359   ZZ=   204.8601
   Eigenvalues:   204.3205   212.5899   218.3759
     41  N    Isotropic =   229.5845   Anisotropy =    31.5994
   XX=   248.2967   YX=   -19.5134   ZX=    -1.5008
   XY=     0.9013   YY=   213.5632   ZY=     1.8782
   XZ=     1.7557   YZ=    -6.2044   ZZ=   226.8937
   Eigenvalues:   210.9588   227.1441   250.6508
     42  C    Isotropic =   191.4003   Anisotropy =    54.6578
   XX=   179.0964   YX=     3.1048   ZX=     3.7941
   XY=     6.5950   YY=   227.0060   ZY=     5.0677
   XZ=    -4.5167   YZ=     4.1533   ZZ=   168.0985
   Eigenvalues:   167.6906   178.6714   227.8388
     43  C    Isotropic =   220.8091   Anisotropy =     7.7105
   XX=   222.1016   YX=    -2.5756   ZX=    -6.3137
   XY=    -3.8048   YY=   222.0338   ZY=    -4.3946
   XZ=    -4.2253   YZ=    -2.8456   ZZ=   218.2920
   Eigenvalues:   212.2402   224.2378   225.9494
     44  C    Isotropic =   214.2040   Anisotropy =    26.1602
   XX=   208.6490   YX=    -6.2315   ZX=    -1.6898
   XY=    -8.2242   YY=   228.5208   ZY=    -4.5927
   XZ=    -1.8877   YZ=    -5.9531   ZZ=   205.4422
   Eigenvalues:   202.1036   208.8642   231.6441
     45  C    Isotropic =   210.9052   Anisotropy =    37.1168
   XX=   198.5243   YX=     0.3110   ZX=   -16.0017
   XY=    -2.1698   YY=   210.6492   ZY=     5.7847
   XZ=   -17.9369   YZ=    14.2159   ZZ=   223.5421
   Eigenvalues:   189.2523   207.8136   235.6498
     46  C    Isotropic =   187.9138   Anisotropy =    59.1405
   XX=   164.2347   YX=    -4.5296   ZX=     7.0281
   XY=   -16.2548   YY=   186.7687   ZY=   -24.7430
   XZ=    -1.1593   YZ=   -21.7109   ZZ=   212.7381
   Eigenvalues:   159.2919   177.1087   227.3409
     47  C    Isotropic =   210.6312   Anisotropy =    24.4372
   XX=   204.5652   YX=    -2.0862   ZX=    12.5699
   XY=    -3.0304   YY=   215.6358   ZY=    -7.4313
   XZ=    12.2978   YZ=    -8.8457   ZZ=   211.6926
   Eigenvalues:   194.7521   210.2189   226.9227
     48  C    Isotropic =   209.0132   Anisotropy =    10.2277
   XX=   204.8619   YX=     5.1224   ZX=     2.8174
   XY=     5.9684   YY=   207.9064   ZY=     2.9269
   XZ=     5.1693   YZ=    -5.4869   ZZ=   214.2714
   Eigenvalues:   199.5606   211.6474   215.8317
     49  C    Isotropic =    96.6082   Anisotropy =    98.2928
   XX=   130.7543   YX=    46.4254   ZX=   -51.4294
   XY=    41.1906   YY=    86.4259   ZY=    90.6196
   XZ=   -38.1095   YZ=    72.9998   ZZ=    72.6443
   Eigenvalues:   -27.3577   155.0455   162.1367
     50  O    Isotropic =  -130.7143   Anisotropy =   884.3605
   XX=   112.9125   YX=   432.7203   ZX=   145.5833
   XY=   439.5768   YY=  -118.5374   ZY=   -48.8545
   XZ=   169.1069   YZ=   -55.9897   ZZ=  -386.5179
   Eigenvalues:  -565.1514  -285.8508   458.8594
     51  O    Isotropic =   283.7628   Anisotropy =   139.1866
   XX=   359.1405   YX=   -18.5366   ZX=    75.1314
   XY=     0.3146   YY=   369.6106   ZY=   -64.5853
   XZ=     1.2939   YZ=    66.0854   ZZ=   122.5375
   Eigenvalues:   116.5006   358.2340   376.5539
     52  C    Isotropic =   197.2209   Anisotropy =    57.5954
   XX=   179.2933   YX=    -1.6376   ZX=     4.7763
   XY=    -0.9884   YY=   183.9238   ZY=   -18.7270
   XZ=     5.1385   YZ=   -18.3514   ZZ=   228.4456
   Eigenvalues:   177.0978   178.9471   235.6178
     53  C    Isotropic =   209.9218   Anisotropy =    42.3280
   XX=   225.0649   YX=   -19.3112   ZX=    -4.7121
   XY=   -20.3564   YY=   205.0841   ZY=     2.6702
   XZ=    -4.1058   YZ=     4.9347   ZZ=   199.6164
   Eigenvalues:   192.7274   198.8975   238.1405
     54  O    Isotropic =    19.8601   Anisotropy =   487.0416
   XX=   301.2478   YX=    52.7127   ZX=   109.1124
   XY=    72.9669   YY=  -162.9111   ZY=    49.9317
   XZ=   122.8712   YZ=    46.5345   ZZ=   -78.7564
   Eigenvalues:  -185.0818   -99.8925   344.5545
     55  H    Isotropic =    25.2333   Anisotropy =    12.7656
   XX=    28.3910   YX=    -5.0963   ZX=    -3.3304
   XY=    -5.1545   YY=    25.1257   ZY=     2.8298
   XZ=    -3.6529   YZ=     2.2212   ZZ=    22.1834
   Eigenvalues:    20.5766    21.3796    33.7438
     56  H    Isotropic =    26.0276   Anisotropy =     7.0183
   XX=    26.5330   YX=     0.8848   ZX=    -3.7224
   XY=     0.5109   YY=    27.7498   ZY=    -1.1667
   XZ=    -5.2692   YZ=    -2.1713   ZZ=    23.7999
   Eigenvalues:    20.3478    27.0285    30.7064
     57  H    Isotropic =    26.7327   Anisotropy =     7.7751
   XX=    25.8448   YX=    -2.5558   ZX=    -4.1340
   XY=    -2.3170   YY=    30.5044   ZY=    -0.5134
   XZ=    -4.5109   YZ=    -0.0123   ZZ=    23.8491
   Eigenvalues:    20.1158    28.1662    31.9162
     58  H    Isotropic =    30.9141   Anisotropy =    14.0710
   XX=    39.9432   YX=    -0.2073   ZX=    -2.5119
   XY=    -2.0673   YY=    27.5643   ZY=    -0.4352
   XZ=    -1.3205   YZ=     0.9705   ZZ=    25.2348
   Eigenvalues:    24.9834    27.4641    40.2948
     59  H    Isotropic =    33.0008   Anisotropy =    10.6542
   XX=    39.1163   YX=    -1.8457   ZX=     2.7867
   XY=    -3.6729   YY=    32.3160   ZY=     1.1118
   XZ=    -0.6912   YZ=     2.8713   ZZ=    27.5702
   Eigenvalues:    26.5306    32.3683    40.1037
     60  H    Isotropic =    32.3554   Anisotropy =    12.1738
   XX=    27.1277   YX=     2.5263   ZX=     2.2963
   XY=     1.6690   YY=    30.4050   ZY=    -2.9679
   XZ=     0.5392   YZ=    -3.0151   ZZ=    39.5333
   Eigenvalues:    25.5981    30.9967    40.4712
     61  H    Isotropic =    32.5093   Anisotropy =    13.5495
   XX=    27.9240   YX=     0.7534   ZX=     1.5428
   XY=     0.8467   YY=    31.0973   ZY=     5.1145
   XZ=     1.3610   YZ=     5.6614   ZZ=    38.5065
   Eigenvalues:    27.7204    28.2651    41.5423
     62  H    Isotropic =    31.8789   Anisotropy =    18.5197
   XX=    43.6107   YX=     3.5283   ZX=     0.8984
   XY=     2.7644   YY=    27.3499   ZY=    -0.7038
   XZ=     0.6387   YZ=     0.3952   ZZ=    24.6759
   Eigenvalues:    24.6091    26.8021    44.2253
     63  H    Isotropic =    31.5587   Anisotropy =    14.1728
   XX=    36.0306   YX=     3.1770   ZX=    -5.4019
   XY=     4.1851   YY=    29.3249   ZY=    -3.5429
   XZ=    -5.4180   YZ=    -2.8787   ZZ=    29.3206
   Eigenvalues:    25.7535    27.9154    41.0073
     64  H    Isotropic =    31.8081   Anisotropy =    15.6581
   XX=    26.9279   YX=    -1.4253   ZX=     4.8052
   XY=    -1.2353   YY=    31.0419   ZY=    -6.1197
   XZ=     4.2982   YZ=    -5.4422   ZZ=    37.4545
   Eigenvalues:    25.0640    28.1136    42.2468
     65  H    Isotropic =    32.6391   Anisotropy =    17.1954
   XX=    26.6957   YX=     1.5759   ZX=     0.2728
   XY=     1.0806   YY=    43.2040   ZY=    -3.5417
   XZ=     0.3129   YZ=    -3.6645   ZZ=    28.0175
   Eigenvalues:    26.2583    27.5562    44.1027
     66  H    Isotropic =    32.5355   Anisotropy =    12.0033
   XX=    38.6594   YX=    -4.2249   ZX=    -0.3242
   XY=    -3.9255   YY=    31.6797   ZY=    -1.4363
   XZ=    -0.4833   YZ=    -1.2225   ZZ=    27.2672
   Eigenvalues:    26.6618    30.4069    40.5376
     67  H    Isotropic =    32.2265   Anisotropy =    14.6981
   XX=    40.2100   YX=     4.3922   ZX=     1.3409
   XY=     4.4988   YY=    30.8876   ZY=    -1.2907
   XZ=     1.2039   YZ=    -0.9936   ZZ=    25.5819
   Eigenvalues:    24.9789    29.6754    42.0253
     68  H    Isotropic =    32.5273   Anisotropy =    13.7929
   XX=    26.8437   YX=    -1.2635   ZX=    -1.2483
   XY=    -0.7731   YY=    36.7849   ZY=     5.8410
   XZ=    -0.8961   YZ=     6.2506   ZZ=    33.9535
   Eigenvalues:    26.6824    29.1770    41.7226
     69  H    Isotropic =    32.2650   Anisotropy =    11.7853
   XX=    28.4896   YX=    -3.5003   ZX=     2.4244
   XY=    -1.3208   YY=    32.7246   ZY=     7.1999
   XZ=     2.5973   YZ=     4.3448   ZZ=    35.5810
   Eigenvalues:    24.8916    31.7816    40.1219
     70  H    Isotropic =    32.9121   Anisotropy =    11.7252
   XX=    38.4923   YX=     4.6871   ZX=    -0.7170
   XY=     5.2118   YY=    29.0935   ZY=    -0.1690
   XZ=    -0.7292   YZ=    -1.6815   ZZ=    31.1504
   Eigenvalues:    26.8916    31.1158    40.7289
     71  H    Isotropic =    31.8309   Anisotropy =    16.4128
   XX=    29.3408   YX=     0.3631   ZX=     8.1607
   XY=     0.4845   YY=    27.4478   ZY=    -0.2910
   XZ=     6.5483   YZ=    -1.7737   ZZ=    38.7040
   Eigenvalues:    24.9936    27.7263    42.7728
     72  H    Isotropic =    31.9033   Anisotropy =     9.8578
   XX=    37.2390   YX=    -3.6094   ZX=     0.2467
   XY=    -3.0215   YY=    29.5301   ZY=     0.4402
   XZ=     0.1757   YZ=    -0.7260   ZZ=    28.9408
   Eigenvalues:    28.2946    28.9400    38.4752
     73  H    Isotropic =    31.3614   Anisotropy =    10.3021
   XX=    35.5186   YX=    -3.8414   ZX=     2.2994
   XY=    -2.4710   YY=    29.8948   ZY=    -3.6861
   XZ=     2.1097   YZ=    -3.2120   ZZ=    28.6707
   Eigenvalues:    25.7649    30.0897    38.2294
     74  H    Isotropic =    32.2485   Anisotropy =    14.3181
   XX=    28.9493   YX=    -2.2844   ZX=    -5.2538
   XY=    -1.5649   YY=    33.9992   ZY=     5.5680
   XZ=    -5.0212   YZ=     6.2493   ZZ=    33.7972
   Eigenvalues:    25.2738    29.6778    41.7939
     75  H    Isotropic =    31.2381   Anisotropy =    12.0251
   XX=    28.4980   YX=     0.9938   ZX=    -4.3331
   XY=     1.7296   YY=    27.7228   ZY=    -0.1628
   XZ=    -3.9684   YZ=    -1.4798   ZZ=    37.4935
   Eigenvalues:    26.2029    28.2566    39.2548
     76  H    Isotropic =    30.6335   Anisotropy =     8.0592
   XX=    31.3350   YX=     2.9194   ZX=     1.5198
   XY=     3.3100   YY=    27.9524   ZY=     2.3307
   XZ=     2.1599   YZ=     3.2032   ZZ=    32.6130
   Eigenvalues:    25.7353    30.1588    36.0063
     77  H    Isotropic =    30.5704   Anisotropy =    12.1292
   XX=    30.9904   YX=     4.5444   ZX=    -2.4201
   XY=     4.1557   YY=    33.2631   ZY=    -4.5995
   XZ=    -1.7685   YZ=    -4.1743   ZZ=    27.4578
   Eigenvalues:    25.0877    27.9670    38.6566
     78  H    Isotropic =    30.5794   Anisotropy =    11.8536
   XX=    37.2761   YX=    -2.2984   ZX=    -2.8619
   XY=    -2.6756   YY=    28.4573   ZY=     0.6890
   XZ=    -2.3513   YZ=     0.1310   ZZ=    26.0048
   Eigenvalues:    25.4240    27.8324    38.4818
     79  H    Isotropic =    32.0359   Anisotropy =    10.4252
   XX=    32.4996   YX=    -1.3656   ZX=     5.1417
   XY=    -1.5565   YY=    29.8840   ZY=    -3.8508
   XZ=     2.7521   YZ=    -4.3895   ZZ=    33.7241
   Eigenvalues:    27.0414    30.0803    38.9860
     80  H    Isotropic =    30.8354   Anisotropy =    14.7334
   XX=    27.6528   YX=     3.4868   ZX=    -2.3045
   XY=     3.5420   YY=    38.1422   ZY=    -3.7726
   XZ=    -3.3646   YZ=    -3.8323   ZZ=    26.7114
   Eigenvalues:    24.2663    27.5823    40.6577
     81  H    Isotropic =    30.9556   Anisotropy =    10.8328
   XX=    30.0435   YX=    -1.8566   ZX=    -5.1611
   XY=    -1.5921   YY=    29.0067   ZY=    -2.2000
   XZ=    -6.6494   YZ=    -1.9132   ZZ=    33.8167
   Eigenvalues:    24.2842    30.4052    38.1775
     82  H    Isotropic =    29.8673   Anisotropy =    12.5651
   XX=    27.6323   YX=    -0.2085   ZX=     0.1935
   XY=    -1.3364   YY=    35.2670   ZY=     5.4689
   XZ=    -1.2279   YZ=     6.0553   ZZ=    26.7026
   Eigenvalues:    23.8022    27.5557    38.2440
     83  H    Isotropic =    29.9506   Anisotropy =     8.0994
   XX=    27.0767   YX=    -1.4801   ZX=     0.0585
   XY=    -2.5236   YY=    28.8780   ZY=    -2.2347
   XZ=     1.9813   YZ=    -2.9100   ZZ=    33.8973
   Eigenvalues:    25.7373    28.7644    35.3502
     84  H    Isotropic =    25.3569   Anisotropy =    15.3606
   XX=    31.5095   YX=     4.4388   ZX=     2.6641
   XY=     4.2116   YY=    25.7257   ZY=     3.6005
   XZ=     5.0767   YZ=     4.8647   ZZ=    18.8354
   Eigenvalues:    16.6017    23.8716    35.5973
     85  H    Isotropic =    25.6143   Anisotropy =     6.6083
   XX=    28.6047   YX=    -2.3851   ZX=     1.6465
   XY=    -1.6409   YY=    26.8959   ZY=     1.4624
   XZ=     2.1634   YZ=     1.4344   ZZ=    21.3421
   Eigenvalues:    20.3066    26.5164    30.0198
     86  H    Isotropic =    26.5673   Anisotropy =     7.9016
   XX=    27.7194   YX=     0.8215   ZX=     2.6935
   XY=     0.6122   YY=    30.5643   ZY=     2.5276
   XZ=     3.1995   YZ=     2.6166   ZZ=    21.4183
   Eigenvalues:    19.8216    28.0454    31.8350
     87  H    Isotropic =    30.5295   Anisotropy =     7.3801
   XX=    31.8046   YX=     0.6106   ZX=     2.5860
   XY=     0.6116   YY=    28.8761   ZY=     1.3601
   XZ=     5.3543   YZ=    -0.3195   ZZ=    30.9079
   Eigenvalues:    27.3606    28.7784    35.4496
     88  H    Isotropic =    32.8691   Anisotropy =     8.5740
   XX=    28.8138   YX=     3.0491   ZX=     1.0353
   XY=     2.4426   YY=    33.4608   ZY=     4.3777
   XZ=    -1.7801   YZ=     2.0741   ZZ=    36.3327
   Eigenvalues:    27.1868    32.8353    38.5851
     89  H    Isotropic =    32.1532   Anisotropy =    14.0729
   XX=    37.8876   YX=    -4.0232   ZX=    -5.2634
   XY=    -3.5121   YY=    30.5582   ZY=    -0.4713
   XZ=    -6.6121   YZ=    -1.3422   ZZ=    28.0138
   Eigenvalues:    24.2157    30.7087    41.5351
     90  H    Isotropic =    32.1283   Anisotropy =    15.3947
   XX=    36.3344   YX=     3.9623   ZX=    -6.7166
   XY=     3.8032   YY=    31.0184   ZY=    -2.8385
   XZ=    -6.6514   YZ=    -3.1739   ZZ=    29.0321
   Eigenvalues:    24.9855    29.0080    42.3914
     91  H    Isotropic =    32.3550   Anisotropy =    12.5143
   XX=    27.7683   YX=    -0.8725   ZX=     1.8318
   XY=    -1.4689   YY=    29.3196   ZY=    -1.4830
   XZ=     1.6339   YZ=    -2.8971   ZZ=    39.9770
   Eigenvalues:    27.1160    29.2510    40.6978
     92  H    Isotropic =    30.5496   Anisotropy =    13.3947
   XX=    34.9083   YX=    -3.4119   ZX=    -4.4430
   XY=    -5.4752   YY=    31.3544   ZY=     1.5821
   XZ=    -4.2465   YZ=     2.2864   ZZ=    25.3863
   Eigenvalues:    23.6952    28.4743    39.4794
     93  H    Isotropic =    31.8877   Anisotropy =     8.4187
   XX=    29.7720   YX=     0.9668   ZX=     2.7091
   XY=     1.2669   YY=    32.7653   ZY=     4.0442
   XZ=     1.9187   YZ=     3.4937   ZZ=    33.1259
   Eigenvalues:    28.3257    29.8373    37.5002
     94  H    Isotropic =    31.5514   Anisotropy =    11.9622
   XX=    33.7198   YX=    -0.4586   ZX=     5.5986
   XY=    -1.1156   YY=    28.3646   ZY=    -2.1762
   XZ=     6.3140   YZ=    -2.3264   ZZ=    32.5697
   Eigenvalues:    26.3745    28.7534    39.5261
     95  H    Isotropic =    32.1523   Anisotropy =    17.1981
   XX=    28.2258   YX=    -1.8257   ZX=    -1.1968
   XY=    -2.4373   YY=    43.2287   ZY=    -1.9878
   XZ=    -0.9456   YZ=    -0.9462   ZZ=    25.0023
   Eigenvalues:    24.4537    28.3854    43.6177
     96  H    Isotropic =    32.1464   Anisotropy =    13.8652
   XX=    28.0766   YX=    -0.4757   ZX=    -4.2261
   XY=    -0.9133   YY=    31.8839   ZY=    -5.9453
   XZ=    -4.3547   YZ=    -6.0634   ZZ=    36.4786
   Eigenvalues:    24.5987    30.4506    41.3898
     97  H    Isotropic =    32.3848   Anisotropy =    13.6244
   XX=    33.7286   YX=     5.1331   ZX=     2.3557
   XY=     5.0318   YY=    37.5785   ZY=     0.8902
   XZ=     2.9316   YZ=     1.3352   ZZ=    25.8472
   Eigenvalues:    25.0248    30.6618    41.4677
     98  H    Isotropic =    32.9582   Anisotropy =    10.7088
   XX=    33.3831   YX=    -3.0481   ZX=     2.3832
   XY=    -1.6845   YY=    29.3207   ZY=    -4.5719
   XZ=     3.2989   YZ=    -3.8349   ZZ=    36.1709
   Eigenvalues:    27.1571    31.6202    40.0975
     99  H    Isotropic =    32.3314   Anisotropy =    13.6454
   XX=    37.7843   YX=     4.7063   ZX=    -3.2717
   XY=     7.0494   YY=    31.2133   ZY=     0.1796
   XZ=    -2.4650   YZ=     3.3458   ZZ=    27.9967
   Eigenvalues:    24.8325    30.7334    41.4283
    100  H    Isotropic =    31.5372   Anisotropy =     9.1400
   XX=    31.2176   YX=     0.1359   ZX=     3.3922
   XY=     1.1480   YY=    28.5456   ZY=     1.9493
   XZ=     3.3460   YZ=     3.4195   ZZ=    34.8483
   Eigenvalues:    27.4274    29.5536    37.6305
    101  H    Isotropic =    30.9079   Anisotropy =    13.0839
   XX=    34.6202   YX=    -1.5255   ZX=    -4.9081
   XY=    -0.0975   YY=    26.0456   ZY=     0.4782
   XZ=    -7.2168   YZ=     1.1297   ZZ=    32.0579
   Eigenvalues:    25.9399    27.1533    39.6305
    102  H    Isotropic =    31.7957   Anisotropy =     8.8288
   XX=    29.8809   YX=    -0.8815   ZX=     0.2319
   XY=    -1.9965   YY=    30.8244   ZY=     3.9139
   XZ=     0.6013   YZ=     5.1002   ZZ=    34.6818
   Eigenvalues:    27.1077    30.5978    37.6815
    103  H    Isotropic =    32.0803   Anisotropy =    15.0319
   XX=    37.3572   YX=     6.5591   ZX=     1.3571
   XY=     6.1244   YY=    33.5295   ZY=    -1.2448
   XZ=     1.8854   YZ=    -0.6078   ZZ=    25.3543
   Eigenvalues:    24.6247    29.5147    42.1016
    104  H    Isotropic =    31.1242   Anisotropy =    13.0862
   XX=    39.6240   YX=    -2.1926   ZX=     0.0409
   XY=    -0.9737   YY=    27.7450   ZY=    -1.6362
   XZ=     0.6418   YZ=    -0.5881   ZZ=    26.0037
   Eigenvalues:    25.4507    28.0736    39.8483
    105  H    Isotropic =    30.5860   Anisotropy =    11.6604
   XX=    28.7855   YX=     0.9727   ZX=     4.9275
   XY=     1.7437   YY=    28.7173   ZY=     2.8120
   XZ=     5.5450   YZ=     2.5502   ZZ=    34.2552
   Eigenvalues:    25.5910    27.8074    38.3596
    106  H    Isotropic =    30.5154   Anisotropy =    12.3206
   XX=    29.4605   YX=    -5.3199   ZX=     2.6893
   XY=    -5.4476   YY=    32.6900   ZY=    -2.8005
   XZ=     3.5439   YZ=    -3.4025   ZZ=    29.3956
   Eigenvalues:    25.2831    27.5339    38.7291
    107  H    Isotropic =    30.6784   Anisotropy =     7.3709
   XX=    32.2432   YX=     1.9601   ZX=    -2.0602
   XY=     1.2339   YY=    27.4683   ZY=    -3.4930
   XZ=    -1.1916   YZ=    -3.5012   ZZ=    32.3238
   Eigenvalues:    25.5674    30.8755    35.5924
    108  H    Isotropic =    30.9390   Anisotropy =    11.0929
   XX=    37.2870   YX=    -1.3406   ZX=     4.0037
   XY=    -1.6281   YY=    29.4394   ZY=     2.2410
   XZ=     2.8637   YZ=     2.3205   ZZ=    26.0906
   Eigenvalues:    23.8940    30.5887    38.3343
    109  H    Isotropic =    30.7068   Anisotropy =    14.5867
   XX=    28.7381   YX=    -4.3260   ZX=     2.4984
   XY=    -4.1298   YY=    38.0686   ZY=    -2.6955
   XZ=     1.9037   YZ=    -2.7164   ZZ=    25.3138
   Eigenvalues:    24.2025    27.4867    40.4313
    110  H    Isotropic =    31.8789   Anisotropy =    11.9827
   XX=    31.4870   YX=    -4.0164   ZX=    -3.5425
   XY=    -3.4240   YY=    30.4672   ZY=     3.4955
   XZ=    -5.3642   YZ=     3.4294   ZZ=    33.6826
   Eigenvalues:    27.1782    28.5912    39.8674
 End of Minotr F.D. properties file   721 does not exist.
 End of Minotr F.D. properties file   722 does not exist.
 End of Minotr F.D. properties file   788 does not exist.
 Hyperfine terms turned off by default for NAtoms > 100.

 **********************************************************************

            Population analysis using the SCF Density.

 **********************************************************************

 Orbital symmetries:
       Occupied  (A) (A) (A) (A) (A) (A) (A) (A) (A) (A) (A) (A)
                 (A) (A) (A) (A) (A) (A) (A) (A) (A) (A) (A) (A)
                 (A) (A) (A) (A) (A) (A) (A) (A) (A) (A) (A) (A)
                 (A) (A) (A) (A) (A) (A) (A) (A) (A) (A) (A) (A)
                 (A) (A) (A) (A) (A) (A) (A) (A) (A) (A) (A) (A)
                 (A) (A) (A) (A) (A) (A) (A) (A) (A) (A) (A) (A)
                 (A) (A) (A) (A) (A) (A) (A) (A) (A) (A) (A) (A)
                 (A) (A) (A) (A) (A) (A) (A) (A) (A) (A) (A) (A)
                 (A) (A) (A) (A) (A) (A) (A) (A) (A) (A) (A) (A)
                 (A) (A) (A) (A) (A) (A) (A) (A) (A) (A) (A) (A)
                 (A) (A) (A) (A) (A) (A) (A) (A) (A) (A) (A) (A)
                 (A) (A) (A) (A) (A) (A) (A) (A) (A) (A) (A) (A)
                 (A) (A) (A) (A) (A) (A) (A) (A) (A) (A) (A) (A)
                 (A) (A) (A) (A) (A) (A) (A) (A) (A) (A) (A) (A)
                 (A) (A) (A) (A) (A) (A) (A) (A) (A) (A) (A) (A)
                 (A) (A) (A) (A) (A) (A) (A) (A) (A) (A) (A) (A)
                 (A) (A) (A) (A) (A)
       Virtual   (A) (A) (A) (A) (A) (A) (A) (A) (A) (A) (A) (A)
                 (A) (A) (A) (A) (A) (A) (A) (A) (A) (A) (A) (A)
                 (A) (A) (A) (A) (A) (A) (A) (A) (A) (A) (A) (A)
                 (A) (A) (A) (A) (A) (A) (A) (A) (A) (A) (A) (A)
                 (A) (A) (A) (A) (A) (A) (A) (A) (A) (A) (A) (A)
                 (A) (A) (A) (A) (A) (A) (A) (A) (A) (A) (A) (A)
                 (A) (A) (A) (A) (A) (A) (A) (A) (A) (A) (A) (A)
                 (A) (A) (A) (A) (A) (A) (A) (A) (A) (A) (A) (A)
                 (A) (A) (A) (A) (A) (A) (A) (A) (A) (A) (A) (A)
                 (A) (A) (A) (A) (A) (A) (A) (A) (A) (A) (A) (A)
                 (A) (A) (A) (A) (A) (A) (A) (A) (A)
 The electronic state is 1-A.
 Alpha  occ. eigenvalues --  -20.31468 -20.29679 -20.25411 -20.23576 -19.91886
 Alpha  occ. eigenvalues --  -15.48123 -15.33954 -15.32344 -15.28843 -11.17438
 Alpha  occ. eigenvalues --  -11.15476 -11.11160 -11.10335 -11.09768 -11.09294
 Alpha  occ. eigenvalues --  -11.09185 -11.08462 -11.08280 -11.07980 -11.07410
 Alpha  occ. eigenvalues --  -11.07407 -11.07089 -11.06896 -11.05938 -11.05881
 Alpha  occ. eigenvalues --  -11.05523 -11.05422 -11.05330 -11.05235 -11.05177
 Alpha  occ. eigenvalues --  -11.05133 -11.05048 -11.04756 -11.04653 -11.04332
 Alpha  occ. eigenvalues --  -11.04166 -11.03609 -11.03579 -11.02974 -11.02494
 Alpha  occ. eigenvalues --  -11.02464 -11.02371 -11.02291 -11.01839 -11.01753
 Alpha  occ. eigenvalues --  -11.01555 -11.01515 -11.01320 -11.01239 -11.00900
 Alpha  occ. eigenvalues --  -11.00638 -11.00508 -11.00241 -11.00218  -1.38692
 Alpha  occ. eigenvalues --   -1.36888  -1.28583  -1.28279  -1.26662  -1.21452
 Alpha  occ. eigenvalues --   -1.20038  -1.17264  -1.11907  -1.08562  -1.07963
 Alpha  occ. eigenvalues --   -1.06803  -1.06099  -1.03643  -1.03275  -1.00635
 Alpha  occ. eigenvalues --   -0.99677  -0.98802  -0.97795  -0.97097  -0.96673
 Alpha  occ. eigenvalues --   -0.95313  -0.94831  -0.93317  -0.92942  -0.92641
 Alpha  occ. eigenvalues --   -0.92110  -0.90660  -0.90463  -0.89167  -0.87534
 Alpha  occ. eigenvalues --   -0.86028  -0.84114  -0.82830  -0.82121  -0.81049
 Alpha  occ. eigenvalues --   -0.80457  -0.78576  -0.78238  -0.77753  -0.76187
 Alpha  occ. eigenvalues --   -0.75874  -0.74538  -0.73075  -0.72717  -0.71820
 Alpha  occ. eigenvalues --   -0.70448  -0.69726  -0.68978  -0.68133  -0.66966
 Alpha  occ. eigenvalues --   -0.65594  -0.65058  -0.64624  -0.63469  -0.62706
 Alpha  occ. eigenvalues --   -0.62216  -0.62085  -0.61318  -0.61073  -0.61009
 Alpha  occ. eigenvalues --   -0.59883  -0.59586  -0.59497  -0.59080  -0.58532
 Alpha  occ. eigenvalues --   -0.58396  -0.57668  -0.57348  -0.57061  -0.56817
 Alpha  occ. eigenvalues --   -0.56742  -0.56513  -0.56026  -0.55530  -0.55408
 Alpha  occ. eigenvalues --   -0.55278  -0.54777  -0.54385  -0.54087  -0.53613
 Alpha  occ. eigenvalues --   -0.53320  -0.52916  -0.52447  -0.52292  -0.51827
 Alpha  occ. eigenvalues --   -0.51609  -0.51189  -0.51048  -0.50533  -0.49817
 Alpha  occ. eigenvalues --   -0.49595  -0.49176  -0.48948  -0.48692  -0.48353
 Alpha  occ. eigenvalues --   -0.48214  -0.47784  -0.47681  -0.47220  -0.46786
 Alpha  occ. eigenvalues --   -0.46463  -0.46212  -0.45810  -0.45375  -0.44937
 Alpha  occ. eigenvalues --   -0.44690  -0.44524  -0.44077  -0.43631  -0.43244
 Alpha  occ. eigenvalues --   -0.43202  -0.42897  -0.42576  -0.42321  -0.42150
 Alpha  occ. eigenvalues --   -0.41710  -0.41337  -0.41202  -0.40828  -0.40576
 Alpha  occ. eigenvalues --   -0.40028  -0.39745  -0.39254  -0.38991  -0.37806
 Alpha  occ. eigenvalues --   -0.36884  -0.35828  -0.35698  -0.35009  -0.34692
 Alpha  occ. eigenvalues --   -0.34080  -0.33103  -0.32449  -0.32362  -0.30905
 Alpha  occ. eigenvalues --   -0.26670  -0.25825  -0.24525  -0.21216  -0.19582
 Alpha  occ. eigenvalues --   -0.15660  -0.15575
 Alpha virt. eigenvalues --    0.27148   0.27824   0.28449   0.29599   0.30005
 Alpha virt. eigenvalues --    0.31489   0.45992   0.47021   0.48798   0.49909
 Alpha virt. eigenvalues --    0.50070   0.50358   0.50439   0.51585   0.52594
 Alpha virt. eigenvalues --    0.53660   0.54172   0.55544   0.55684   0.56503
 Alpha virt. eigenvalues --    0.57072   0.58206   0.58419   0.58988   0.59246
 Alpha virt. eigenvalues --    0.59447   0.59778   0.60462   0.61046   0.61440
 Alpha virt. eigenvalues --    0.61901   0.62116   0.62546   0.62602   0.63212
 Alpha virt. eigenvalues --    0.63481   0.63894   0.64248   0.64516   0.64673
 Alpha virt. eigenvalues --    0.64694   0.65440   0.65633   0.65706   0.65970
 Alpha virt. eigenvalues --    0.66329   0.66474   0.66807   0.67026   0.67255
 Alpha virt. eigenvalues --    0.67772   0.68233   0.68415   0.68699   0.68862
 Alpha virt. eigenvalues --    0.68989   0.69393   0.69552   0.69872   0.70007
 Alpha virt. eigenvalues --    0.70318   0.70519   0.70734   0.71382   0.71584
 Alpha virt. eigenvalues --    0.71883   0.71912   0.72174   0.72467   0.72767
 Alpha virt. eigenvalues --    0.72862   0.73031   0.73334   0.73777   0.74518
 Alpha virt. eigenvalues --    0.74744   0.74893   0.75096   0.75428   0.75542
 Alpha virt. eigenvalues --    0.75680   0.75880   0.76104   0.76318   0.76602
 Alpha virt. eigenvalues --    0.77330   0.77459   0.77749   0.78016   0.78098
 Alpha virt. eigenvalues --    0.78257   0.78565   0.78869   0.79421   0.79557
 Alpha virt. eigenvalues --    0.80013   0.80550   0.80627   0.80985   0.81289
 Alpha virt. eigenvalues --    0.81554   0.81900   0.82006   0.82655   0.83053
 Alpha virt. eigenvalues --    0.83827   0.84379   0.85146   0.85236   0.85588
 Alpha virt. eigenvalues --    0.86224   0.86565   0.87801   0.88112   0.88420
 Alpha virt. eigenvalues --    0.88926   0.90780   0.91205   0.92822   0.94444
 Alpha virt. eigenvalues --    0.95102   0.96253   0.98696   1.00651   1.02410
 Alpha virt. eigenvalues --    1.11168   1.12680   1.16161   1.17338
          Condensed to atoms (all electrons):
 Mulliken charges:
               1
     1  C   -0.071119
     2  C   -0.000348
     3  C   -0.063322
     4  C   -0.090697
     5  C    0.088304
     6  C   -0.009565
     7  N   -0.286100
     8  C    0.018486
     9  C    0.127042
    10  C    0.037829
    11  C   -0.114575
    12  C   -0.109597
    13  C    0.029715
    14  N   -0.291671
    15  C   -0.013980
    16  C   -0.107687
    17  C   -0.102458
    18  C   -0.104720
    19  C   -0.019160
    20  C   -0.110625
    21  C   -0.066411
    22  C    0.319309
    23  O   -0.277894
    24  O   -0.255729
    25  C   -0.055709
    26  C   -0.079306
    27  C   -0.109316
    28  C    0.002572
    29  C   -0.073568
    30  C   -0.061671
    31  C   -0.090765
    32  C    0.086186
    33  C   -0.013127
    34  N   -0.286784
    35  C    0.017439
    36  C    0.128352
    37  C    0.039671
    38  C   -0.116472
    39  C   -0.103705
    40  C    0.027694
    41  N   -0.079894
    42  C   -0.008547
    43  C   -0.103632
    44  C   -0.104436
    45  C   -0.106437
    46  C   -0.016249
    47  C   -0.109039
    48  C   -0.068116
    49  C    0.320268
    50  O   -0.279505
    51  O   -0.254334
    52  C   -0.055709
    53  C   -0.079835
    54  O   -0.458134
    55  H    0.068017
    56  H    0.053866
    57  H    0.056271
    58  H    0.075465
    59  H    0.057234
    60  H    0.046319
    61  H    0.041858
    62  H    0.069407
    63  H    0.056743
    64  H    0.057574
    65  H    0.050278
    66  H    0.047685
    67  H    0.057970
    68  H    0.046802
    69  H    0.061565
    70  H    0.060890
    71  H    0.054581
    72  H    0.050074
    73  H    0.065922
    74  H    0.048678
    75  H    0.063185
    76  H    0.074370
    77  H    0.075876
    78  H    0.071160
    79  H    0.054683
    80  H    0.069817
    81  H    0.075188
    82  H    0.056250
    83  H    0.059670
    84  H    0.083792
    85  H    0.056061
    86  H    0.057715
    87  H    0.090005
    88  H    0.059112
    89  H    0.052524
    90  H    0.052308
    91  H    0.054748
    92  H    0.091301
    93  H    0.059956
    94  H    0.074550
    95  H    0.064492
    96  H    0.058410
    97  H    0.053201
    98  H    0.070484
    99  H    0.080600
   100  H    0.073343
   101  H    0.088220
   102  H    0.062359
   103  H    0.055571
   104  H    0.067710
   105  H    0.073270
   106  H    0.079192
   107  H    0.075658
   108  H    0.075566
   109  H    0.073288
   110  H    0.056243
 Sum of Mulliken charges =  -0.00000
 Mulliken charges with hydrogens summed into heavy atoms:
               1
     1  C   -0.003102
     2  C   -0.000348
     3  C   -0.009456
     4  C   -0.034426
     5  C    0.088304
     6  C   -0.009565
     7  N   -0.286100
     8  C    0.018486
     9  C    0.127042
    10  C    0.113294
    11  C   -0.011021
    12  C    0.001669
    13  C    0.029715
    14  N   -0.291671
    15  C    0.100338
    16  C   -0.009724
    17  C    0.002314
    18  C    0.017734
    19  C    0.085495
    20  C    0.003976
    21  C   -0.003225
    22  C    0.319309
    23  O   -0.277894
    24  O   -0.255729
    25  C    0.165697
    26  C    0.120383
    27  C    0.006603
    28  C    0.002572
    29  C    0.010223
    30  C   -0.005610
    31  C   -0.033050
    32  C    0.086186
    33  C   -0.013127
    34  N   -0.286784
    35  C    0.017439
    36  C    0.128352
    37  C    0.129677
    38  C   -0.004836
    39  C    0.003351
    40  C    0.027694
    41  N   -0.079894
    42  C    0.142711
    43  C    0.035410
    44  C    0.007176
    45  C    0.044647
    46  C    0.145314
    47  C    0.008891
    48  C   -0.000406
    49  C    0.320268
    50  O   -0.279505
    51  O   -0.254334
    52  C    0.172410
    53  C    0.125262
    54  O   -0.458134
 Electronic spatial extent (au):  <R**2>=          37744.9855
 Charge=              0.0000 electrons
 Dipole moment (field-independent basis, Debye):
    X=              5.8117    Y=              0.9141    Z=              2.0214  Tot=              6.2207
 Quadrupole moment (field-independent basis, Debye-Ang):
   XX=           -274.0786   YY=           -290.8101   ZZ=           -296.2717
   XY=              7.9900   XZ=             -9.7057   YZ=             -2.9286
 Traceless Quadrupole moment (field-independent basis, Debye-Ang):
   XX=             12.9748   YY=             -3.7566   ZZ=             -9.2182
   XY=              7.9900   XZ=             -9.7057   YZ=             -2.9286
 Octapole moment (field-independent basis, Debye-Ang**2):
  XXX=            174.3893  YYY=             24.8837  ZZZ=             56.1921  XYY=             28.3681
  XXY=            -31.9776  XXZ=             76.5782  XZZ=              6.3336  YZZ=            -12.3769
  YYZ=             17.4548  XYZ=            -12.9747
 Hexadecapole moment (field-independent basis, Debye-Ang**3):
 XXXX=         -32226.2616 YYYY=          -8938.8089 ZZZZ=          -4615.7685 XXXY=            462.5115
 XXXZ=           -155.0269 YYYX=             51.8775 YYYZ=            -45.8434 ZZZX=            160.3951
 ZZZY=           -112.1187 XXYY=          -6889.0037 XXZZ=          -6111.6694 YYZZ=          -2276.3022
 XXYZ=           -157.4156 YYXZ=             -0.0164 ZZXY=            -84.0532
 N-N= 8.144033456075D+03 E-N=-2.166583630844D+04  KE= 2.279196086611D+03
 ******************************Gaussian NBO Version 3.1******************************
             N A T U R A L   A T O M I C   O R B I T A L   A N D
          N A T U R A L   B O N D   O R B I T A L   A N A L Y S I S
 ******************************Gaussian NBO Version 3.1******************************
       /RESON  / : Allow strongly delocalized NBO set
       /NLMO   / : Form Natural Localized Molecular Orbitals
       /NMR /    : Analyze NMR Sheilding Tensor 

 Analyzing the SCF density

 Job title: pleiokomenine_C_1a                                              

 Storage needed:    355564 in NPA,    438187 in NBO,   2133784 in NLMO ( 104796000 available)
 GSVD:  LWork=     -108884 too small for GESVD, short by      536270 words or      536270 for optimal perf.


 NATURAL POPULATIONS:  Natural atomic orbital occupancies 
                                                          
   NAO  Atom  No  lang   Type(AO)    Occupancy      Energy
 ----------------------------------------------------------
     1    C    1  S      Cor( 1S)     1.99993     -10.92986
     2    C    1  S      Val( 2S)     1.08009      -0.16092
     3    C    1  px     Val( 2p)     0.99676       0.10453
     4    C    1  py     Val( 2p)     0.98181       0.15629
     5    C    1  pz     Val( 2p)     0.99398       0.10980
 
     6    C    2  S      Cor( 1S)     1.99990     -10.94154
     7    C    2  S      Val( 2S)     1.07665      -0.16838
     8    C    2  px     Val( 2p)     0.96207       0.12536
     9    C    2  py     Val( 2p)     0.96837       0.17016
    10    C    2  pz     Val( 2p)     0.98059       0.11258
 
    11    C    3  S      Cor( 1S)     1.99994     -10.93439
    12    C    3  S      Val( 2S)     1.08258      -0.16859
    13    C    3  px     Val( 2p)     0.98715       0.10822
    14    C    3  py     Val( 2p)     0.98124       0.15210
    15    C    3  pz     Val( 2p)     0.98403       0.11102
 
    16    C    4  S      Cor( 1S)     1.99993     -10.92790
    17    C    4  S      Val( 2S)     1.07144      -0.16020
    18    C    4  px     Val( 2p)     1.01606       0.09524
    19    C    4  py     Val( 2p)     0.98319       0.15682
    20    C    4  pz     Val( 2p)     1.01704       0.09966
 
    21    C    5  S      Cor( 1S)     1.99985     -10.97375
    22    C    5  S      Val( 2S)     1.06046      -0.17140
    23    C    5  px     Val( 2p)     0.91090       0.11594
    24    C    5  py     Val( 2p)     0.97911       0.15511
    25    C    5  pz     Val( 2p)     0.93788       0.11297
 
    26    C    6  S      Cor( 1S)     1.99990     -10.93154
    27    C    6  S      Val( 2S)     1.08309      -0.17157
    28    C    6  px     Val( 2p)     0.98659       0.11987
    29    C    6  py     Val( 2p)     0.96177       0.14762
    30    C    6  pz     Val( 2p)     0.98907       0.12351
 
    31    N    7  S      Cor( 1S)     1.99998     -15.25621
    32    N    7  S      Val( 2S)     1.41054      -0.58411
    33    N    7  px     Val( 2p)     1.60137      -0.18029
    34    N    7  py     Val( 2p)     1.09591       0.01540
    35    N    7  pz     Val( 2p)     1.16681      -0.00387
 
    36    C    8  S      Cor( 1S)     1.99996     -10.99033
    37    C    8  S      Val( 2S)     1.10874      -0.21519
    38    C    8  px     Val( 2p)     0.97577       0.09444
    39    C    8  py     Val( 2p)     0.95874       0.12889
    40    C    8  pz     Val( 2p)     0.93716       0.12163
 
    41    C    9  S      Cor( 1S)     1.99996     -11.03549
    42    C    9  S      Val( 2S)     1.11320      -0.24273
    43    C    9  px     Val( 2p)     0.93612       0.09751
    44    C    9  py     Val( 2p)     0.82329       0.14653
    45    C    9  pz     Val( 2p)     0.95661       0.09248
 
    46    C   10  S      Cor( 1S)     1.99993     -10.99696
    47    C   10  S      Val( 2S)     1.09850      -0.19963
    48    C   10  px     Val( 2p)     1.00234       0.10289
    49    C   10  py     Val( 2p)     0.94656       0.10386
    50    C   10  pz     Val( 2p)     0.88150       0.14435
 
    51    C   11  S      Cor( 1S)     1.99994     -10.96413
    52    C   11  S      Val( 2S)     1.10366      -0.19832
    53    C   11  px     Val( 2p)     0.99425       0.09957
    54    C   11  py     Val( 2p)     0.98582       0.10158
    55    C   11  pz     Val( 2p)     1.00056       0.10035
 
    56    C   12  S      Cor( 1S)     1.99996     -10.95707
    57    C   12  S      Val( 2S)     1.09179      -0.17994
    58    C   12  px     Val( 2p)     1.01902       0.10406
    59    C   12  py     Val( 2p)     0.97168       0.11227
    60    C   12  pz     Val( 2p)     0.99619       0.10880
 
    61    C   13  S      Cor( 1S)     1.99998     -10.98687
    62    C   13  S      Val( 2S)     1.10441      -0.20976
    63    C   13  px     Val( 2p)     0.93803       0.12669
    64    C   13  py     Val( 2p)     0.95292       0.12505
    65    C   13  pz     Val( 2p)     0.95231       0.12136
 
    66    N   14  S      Cor( 1S)     1.99999     -15.22132
    67    N   14  S      Val( 2S)     1.42049      -0.56269
    68    N   14  px     Val( 2p)     1.27203      -0.02464
    69    N   14  py     Val( 2p)     1.17673       0.01576
    70    N   14  pz     Val( 2p)     1.41089      -0.08190
 
    71    C   15  S      Cor( 1S)     1.99994     -10.99314
    72    C   15  S      Val( 2S)     1.06875      -0.17396
    73    C   15  px     Val( 2p)     1.02868       0.08702
    74    C   15  py     Val( 2p)     0.87502       0.14127
    75    C   15  pz     Val( 2p)     0.98819       0.09967
 
    76    C   16  S      Cor( 1S)     1.99997     -10.96263
    77    C   16  S      Val( 2S)     1.08081      -0.17592
    78    C   16  px     Val( 2p)     1.00701       0.10622
    79    C   16  py     Val( 2p)     1.00201       0.10240
    80    C   16  pz     Val( 2p)     0.98379       0.10548
 
    81    C   17  S      Cor( 1S)     1.99996     -10.96299
    82    C   17  S      Val( 2S)     1.08596      -0.17855
    83    C   17  px     Val( 2p)     1.01369       0.10312
    84    C   17  py     Val( 2p)     0.98088       0.10801
    85    C   17  pz     Val( 2p)     0.98846       0.10844
 
    86    C   18  S      Cor( 1S)     1.99995     -10.96177
    87    C   18  S      Val( 2S)     1.09186      -0.18212
    88    C   18  px     Val( 2p)     0.99979       0.10789
    89    C   18  py     Val( 2p)     0.98832       0.10613
    90    C   18  pz     Val( 2p)     0.99438       0.10150
 
    91    C   19  S      Cor( 1S)     1.99994     -10.98574
    92    C   19  S      Val( 2S)     1.07083      -0.16956
    93    C   19  px     Val( 2p)     0.90311       0.14014
    94    C   19  py     Val( 2p)     0.97267       0.09722
    95    C   19  pz     Val( 2p)     1.01945       0.09581
 
    96    C   20  S      Cor( 1S)     1.99993     -10.97042
    97    C   20  S      Val( 2S)     1.09970      -0.19839
    98    C   20  px     Val( 2p)     0.99570       0.09496
    99    C   20  py     Val( 2p)     0.95715       0.10591
   100    C   20  pz     Val( 2p)     1.02135       0.09119
 
   101    C   21  S      Cor( 1S)     1.99994     -10.99630
   102    C   21  S      Val( 2S)     1.11092      -0.22697
   103    C   21  px     Val( 2p)     0.97021       0.09141
   104    C   21  py     Val( 2p)     0.98877       0.08130
   105    C   21  pz     Val( 2p)     1.01449       0.07734
 
   106    C   22  S      Cor( 1S)     1.99991     -11.10187
   107    C   22  S      Val( 2S)     1.05570      -0.25123
   108    C   22  px     Val( 2p)     0.90341       0.10076
   109    C   22  py     Val( 2p)     0.80846       0.11141
   110    C   22  pz     Val( 2p)     0.82942       0.09352
 
   111    O   23  S      Cor( 1S)     1.99999     -20.08846
   112    O   23  S      Val( 2S)     1.80815      -1.04845
   113    O   23  px     Val( 2p)     1.62530      -0.22345
   114    O   23  py     Val( 2p)     1.55352      -0.20692
   115    O   23  pz     Val( 2p)     1.32517      -0.12177
 
   116    O   24  S      Cor( 1S)     1.99999     -20.20622
   117    O   24  S      Val( 2S)     1.73026      -1.01907
   118    O   24  px     Val( 2p)     1.37684      -0.15991
   119    O   24  py     Val( 2p)     1.47566      -0.20020
   120    O   24  pz     Val( 2p)     1.68465      -0.29748
 
   121    C   25  S      Cor( 1S)     1.99984     -11.03799
   122    C   25  S      Val( 2S)     1.07670      -0.21952
   123    C   25  px     Val( 2p)     0.84780       0.08852
   124    C   25  py     Val( 2p)     1.01222       0.04786
   125    C   25  pz     Val( 2p)     1.02881       0.04929
 
   126    C   26  S      Cor( 1S)     1.99992     -11.00474
   127    C   26  S      Val( 2S)     1.06530      -0.18557
   128    C   26  px     Val( 2p)     1.03351       0.07104
   129    C   26  py     Val( 2p)     1.01439       0.06882
   130    C   26  pz     Val( 2p)     0.90366       0.10530
 
   131    C   27  S      Cor( 1S)     1.99996     -10.97278
   132    C   27  S      Val( 2S)     1.08240      -0.17745
   133    C   27  px     Val( 2p)     0.97992       0.10653
   134    C   27  py     Val( 2p)     1.02720       0.09497
   135    C   27  pz     Val( 2p)     0.99673       0.10180
 
   136    C   28  S      Cor( 1S)     1.99990     -10.95051
   137    C   28  S      Val( 2S)     1.07972      -0.17779
   138    C   28  px     Val( 2p)     0.94661       0.15447
   139    C   28  py     Val( 2p)     0.95982       0.17523
   140    C   28  pz     Val( 2p)     0.99610       0.05798
 
   141    C   29  S      Cor( 1S)     1.99993     -10.93835
   142    C   29  S      Val( 2S)     1.08324      -0.17113
   143    C   29  px     Val( 2p)     0.98246       0.14259
   144    C   29  py     Val( 2p)     0.98981       0.15239
   145    C   29  pz     Val( 2p)     0.99919       0.05011
 
   146    C   30  S      Cor( 1S)     1.99995     -10.94329
   147    C   30  S      Val( 2S)     1.08452      -0.17824
   148    C   30  px     Val( 2p)     0.97334       0.14530
   149    C   30  py     Val( 2p)     0.97622       0.15425
   150    C   30  pz     Val( 2p)     0.99928       0.04747
 
   151    C   31  S      Cor( 1S)     1.99993     -10.93790
   152    C   31  S      Val( 2S)     1.07166      -0.17027
   153    C   31  px     Val( 2p)     0.99871       0.13019
   154    C   31  py     Val( 2p)     0.97695       0.15639
   155    C   31  pz     Val( 2p)     1.04099       0.03519
 
   156    C   32  S      Cor( 1S)     1.99985     -10.98576
   157    C   32  S      Val( 2S)     1.06036      -0.18426
   158    C   32  px     Val( 2p)     0.89964       0.14433
   159    C   32  py     Val( 2p)     0.98005       0.14903
   160    C   32  pz     Val( 2p)     0.95086       0.05193
 
   161    C   33  S      Cor( 1S)     1.99990     -10.94526
   162    C   33  S      Val( 2S)     1.08189      -0.18624
   163    C   33  px     Val( 2p)     0.98443       0.14858
   164    C   33  py     Val( 2p)     0.95194       0.13964
   165    C   33  pz     Val( 2p)     1.00774       0.05711
 
   166    N   34  S      Cor( 1S)     1.99998     -15.27213
   167    N   34  S      Val( 2S)     1.40808      -0.59932
   168    N   34  px     Val( 2p)     1.07390       0.01834
   169    N   34  py     Val( 2p)     1.07601       0.00770
   170    N   34  pz     Val( 2p)     1.71725      -0.24486
 
   171    C   35  S      Cor( 1S)     1.99996     -11.01970
   172    C   35  S      Val( 2S)     1.10782      -0.24377
   173    C   35  px     Val( 2p)     0.95235       0.08082
   174    C   35  py     Val( 2p)     0.95142       0.10366
   175    C   35  pz     Val( 2p)     0.97086       0.07394
 
   176    C   36  S      Cor( 1S)     1.99996     -11.05859
   177    C   36  S      Val( 2S)     1.11064      -0.26389
   178    C   36  px     Val( 2p)     0.94573       0.07417
   179    C   36  py     Val( 2p)     0.83272       0.12059
   180    C   36  pz     Val( 2p)     0.93940       0.07217
 
   181    C   37  S      Cor( 1S)     1.99991     -11.04068
   182    C   37  S      Val( 2S)     1.11993      -0.26132
   183    C   37  px     Val( 2p)     0.91746       0.08461
   184    C   37  py     Val( 2p)     0.94432       0.06389
   185    C   37  pz     Val( 2p)     0.94672       0.06739
 
   186    C   38  S      Cor( 1S)     1.99994     -10.98729
   187    C   38  S      Val( 2S)     1.10269      -0.22121
   188    C   38  px     Val( 2p)     1.01940       0.07212
   189    C   38  py     Val( 2p)     0.98330       0.07964
   190    C   38  pz     Val( 2p)     0.98325       0.07603
 
   191    C   39  S      Cor( 1S)     1.99996     -10.98996
   192    C   39  S      Val( 2S)     1.09207      -0.21232
   193    C   39  px     Val( 2p)     1.01306       0.07318
   194    C   39  py     Val( 2p)     0.97763       0.07954
   195    C   39  pz     Val( 2p)     0.98947       0.07851
 
   196    C   40  S      Cor( 1S)     1.99998     -11.02579
   197    C   40  S      Val( 2S)     1.10747      -0.24964
   198    C   40  px     Val( 2p)     0.93876       0.08984
   199    C   40  py     Val( 2p)     0.94806       0.08964
   200    C   40  pz     Val( 2p)     0.95582       0.08145
 
   201    N   41  S      Cor( 1S)     1.99999     -15.42027
   202    N   41  S      Val( 2S)     1.40373      -0.66201
   203    N   41  px     Val( 2p)     1.27256      -0.13289
   204    N   41  py     Val( 2p)     1.13695      -0.09395
   205    N   41  pz     Val( 2p)     1.15278      -0.10032
 
   206    C   42  S      Cor( 1S)     1.99990     -11.03387
   207    C   42  S      Val( 2S)     1.08958      -0.23154
   208    C   42  px     Val( 2p)     1.03655       0.05060
   209    C   42  py     Val( 2p)     0.83009       0.08952
   210    C   42  pz     Val( 2p)     0.99957       0.05815
 
   211    C   43  S      Cor( 1S)     1.99997     -10.99603
   212    C   43  S      Val( 2S)     1.07987      -0.20591
   213    C   43  px     Val( 2p)     0.98921       0.07572
   214    C   43  py     Val( 2p)     1.01600       0.06984
   215    C   43  pz     Val( 2p)     0.98932       0.07564
 
   216    C   44  S      Cor( 1S)     1.99995     -10.99319
   217    C   44  S      Val( 2S)     1.09019      -0.21201
   218    C   44  px     Val( 2p)     0.98498       0.07851
   219    C   44  py     Val( 2p)     0.97103       0.08072
   220    C   44  pz     Val( 2p)     1.02453       0.06878
 
   221    C   45  S      Cor( 1S)     1.99995     -10.99004
   222    C   45  S      Val( 2S)     1.09138      -0.20911
   223    C   45  px     Val( 2p)     1.02795       0.06851
   224    C   45  py     Val( 2p)     0.98264       0.08124
   225    C   45  pz     Val( 2p)     0.97988       0.08107
 
   226    C   46  S      Cor( 1S)     1.99992     -11.02411
   227    C   46  S      Val( 2S)     1.09127      -0.22461
   228    C   46  px     Val( 2p)     1.03557       0.05763
   229    C   46  py     Val( 2p)     0.96630       0.06340
   230    C   46  pz     Val( 2p)     0.87425       0.08956
 
   231    C   47  S      Cor( 1S)     1.99993     -11.00041
   232    C   47  S      Val( 2S)     1.10207      -0.22966
   233    C   47  px     Val( 2p)     1.00603       0.06321
   234    C   47  py     Val( 2p)     0.96251       0.07571
   235    C   47  pz     Val( 2p)     1.00115       0.06620
 
   236    C   48  S      Cor( 1S)     1.99994     -11.01874
[...]
   88      -0.1133        0.0543      -0.1676        -1.0340       0.9207
   89      -0.3106        0.3581      -0.6686        -1.3760       1.0654
   97       0.3711       -1.4373       1.8084        -0.1315       0.5027
  102       2.0270       -2.1972       4.2242         1.2876       0.7394
  105       1.2889        0.5883       0.7007         0.3881       0.9008
  106      25.7116        0.4904      25.2211         0.3421      25.3695
  107       1.7395        2.0602      -0.3206        -0.0604       1.7999
  108       0.0000       -1.4849       1.4849        -1.0643       1.0643
 Sum       30.7143       -1.5682      32.2825        -1.6485      32.3628

 Contributions to Isotropic shielding for atom   95 (    32.1523 ppm):
                         Standard Origin              Atomic Origin
 NLMO      Total    Paramagnetic  Diamagnetic   Paramagnetic  Diamagnetic
  102       1.3306        0.8645       0.4661         0.5224       0.8082
  103       0.1936        0.8852      -0.6916        -0.8157       1.0093
  105       0.4150        3.5852      -3.1702        -0.5377       0.9527
  106       2.3232        1.0643       1.2589         0.5024       1.8208
  107      26.1542       -0.2721      26.4263         0.5035      25.6507
  109       0.0857       -0.5541       0.6398        -1.0317       1.1174
 Sum       30.5022        5.5729      24.9293        -0.8569      31.3591

 Contributions to Isotropic shielding for atom   96 (    32.1463 ppm):
                         Standard Origin              Atomic Origin
 NLMO      Total    Paramagnetic  Diamagnetic   Paramagnetic  Diamagnetic
   94      -0.3649        0.9109      -1.2758        -1.5578       1.1929
   97       1.5154        0.1537       1.3617         0.6810       0.8344
   98      -0.2324        0.9440      -1.1764        -0.3153       0.0829
  105       1.1638        0.6578       0.5060         0.0541       1.1097
  106      -0.0025        0.6689      -0.6714        -1.1109       1.1084
  107       0.3497        1.1527      -0.8030        -0.4819       0.8316
  108      26.4185       -0.2273      26.6458         0.6759      25.7427
  109       1.5219        4.2028      -2.6810        -0.2952       1.8171
 Sum       30.3695        8.4635      21.9060        -2.3502      32.7196

 Contributions to Isotropic shielding for atom   97 (    32.3848 ppm):
                         Standard Origin              Atomic Origin
 NLMO      Total    Paramagnetic  Diamagnetic   Paramagnetic  Diamagnetic
   89      -0.2950        0.3923      -0.6873        -1.0018       0.7068
   94      -0.1382        1.1750      -1.3131        -0.4272       0.2890
   97       1.1368        0.9888       0.1480         0.2370       0.8997
   98      -0.4607        1.4111      -1.8718        -1.7144       1.2537
  105       1.0263        1.4296      -0.4033         0.0320       0.9943
  107       0.0960        1.0658      -0.9698        -0.9696       1.0657
  108       1.7365        4.0341      -2.2976        -0.0849       1.8215
  109      26.6154       -0.4825      27.0978         0.7324      25.8829
 Sum       29.7171       10.0142      19.7029        -3.1966      32.9137

 Contributions to Isotropic shielding for atom   98 (    32.9582 ppm):
                         Standard Origin              Atomic Origin
 NLMO      Total    Paramagnetic  Diamagnetic   Paramagnetic  Diamagnetic
   79       0.4506       -0.8017       1.2523        -0.2118       0.6624
   81       0.2365       -0.9290       1.1656        -0.6689       0.9055
   85       0.5325        1.7675      -1.2351        -0.1938       0.7263
  110       0.8638        1.3183      -0.4545         0.2313       0.6325
  111      25.9511        0.0077      25.9435         0.4857      25.4654
  112       2.2570        0.2365       2.0204         0.3732       1.8837
  113       0.0184       -0.0816       0.1000        -1.0141       1.0324
  115       0.1079       -0.9475       1.0554        -0.4040       0.5120
  118       0.7892       -1.3718       2.1609        -0.0094       0.7985
  120       1.3406       -0.7887       2.1293         0.4748       0.8658
  121      -0.1465       -3.1591       3.0126        -1.1253       0.9788
  123       0.3387       -1.3308       1.6694        -0.4324       0.7711
  126      -0.0471       -1.1999       1.1528        -0.5196       0.4725
  191      -0.6120        1.3922      -2.0042         0.1981      -0.8101
  193      -0.1924        0.8503      -1.0426         0.2068      -0.3992
 Sum       31.8882       -5.0376      36.9257        -2.6094      34.4976

 Contributions to Isotropic shielding for atom   99 (    32.3314 ppm):
                         Standard Origin              Atomic Origin
 NLMO      Total    Paramagnetic  Diamagnetic   Paramagnetic  Diamagnetic
   71      -0.1229       -1.0032       0.8803        -1.2665       1.1436
   80       0.1657       -1.0027       1.1684        -0.9290       1.0948
   85       1.5020       -0.1180       1.6201         0.7228       0.7793
  110       1.1909       -1.0910       2.2819         0.3139       0.8770
  111       1.8695        0.6146       1.2549        -0.1103       1.9798
  112      25.5313        0.6084      24.9229         0.3484      25.1829
  114      -0.1079       -1.1056       0.9977        -1.2107       1.1028
  121       0.0779       -1.1109       1.1888        -0.7124       0.7903
 Sum       30.1067       -4.2084      34.3151        -2.8437      32.9504

 Contributions to Isotropic shielding for atom  100 (    31.5372 ppm):
                         Standard Origin              Atomic Origin
 NLMO      Total    Paramagnetic  Diamagnetic   Paramagnetic  Diamagnetic
   87       0.1333       -0.8686       1.0019        -0.4669       0.6002
   98       0.1583       -1.1566       1.3149        -0.6049       0.7632
   99      -0.2214        0.3450      -0.5664        -1.3348       1.1134
  100       0.1476        1.2522      -1.1046        -0.3912       0.5388
  104      -0.0397       -2.3738       2.3341        -0.6821       0.6424
  113      26.4852        0.1489      26.3363         1.0807      25.4044
  114       1.7848        0.8964       0.8885        -0.1287       1.9136
  115       0.0558       -1.0194       1.0752        -0.6988       0.7545
  116      -0.4777       -2.3295       1.8518        -0.5826       0.1048
  118       0.4888       -0.6702       1.1590        -0.3567       0.8455
  120       0.6319       -0.5034       1.1353         0.2555       0.3764
  121       0.2399       -2.1730       2.4129        -0.7516       0.9915
  191      -0.7482        1.3391      -2.0873         0.2486      -0.9968
 Sum       28.6385       -7.1130      35.7515        -4.4134      33.0519

 Contributions to Isotropic shielding for atom  101 (    30.9079 ppm):
                         Standard Origin              Atomic Origin
 NLMO      Total    Paramagnetic  Diamagnetic   Paramagnetic  Diamagnetic
  100       1.5624       -0.5277       2.0901         0.6650       0.8973
  101       0.0808       -0.4387       0.5194        -0.9271       1.0079
  110       1.0038       -0.8756       1.8794         0.0934       0.9104
  112      -0.0186       -0.4537       0.4352        -1.2140       1.1954
  113       1.1749        1.3974      -0.2225        -0.5486       1.7235
  114      25.6123        0.7193      24.8930         0.7014      24.9109
  121       0.0576       -1.0382       1.0958        -0.5580       0.6156
 Sum       29.4732       -1.2172      30.6904        -1.7878      31.2610

 Contributions to Isotropic shielding for atom  102 (    31.7957 ppm):
                         Standard Origin              Atomic Origin
 NLMO      Total    Paramagnetic  Diamagnetic   Paramagnetic  Diamagnetic
   87       0.3665       -0.9352       1.3017         0.0984       0.2682
   98       1.9958       -1.7969       3.7927         1.0482       0.9476
  109      -0.0695       -1.2328       1.1633        -0.8508       0.7813
  115       1.1497        0.0660       1.0837         0.2946       0.8552
  116      26.1687        0.3063      25.8624         0.4763      25.6924
  117       1.2653        3.1916      -1.9263        -0.6153       1.8806
  118       0.2643       -0.3572       0.6215        -0.8012       1.0655
  121       0.4317       -1.2068       1.6386        -1.2335       1.6653
 Sum       31.5725       -1.9650      33.5375        -1.5835      33.1560

 Contributions to Isotropic shielding for atom  103 (    32.0803 ppm):
                         Standard Origin              Atomic Origin
 NLMO      Total    Paramagnetic  Diamagnetic   Paramagnetic  Diamagnetic
   94      -0.2693        1.4409      -1.7102        -1.1108       0.8415
   95      -0.0318       -1.0339       1.0021        -0.8049       0.7731
   97      -0.2321        1.5311      -1.7632        -1.0951       0.8630
   98       1.0970        1.2920      -0.1949         0.1382       0.9588
  109      -0.0238       -1.2067       1.1829        -0.7922       0.7684
  115       0.2537        3.4821      -3.2284        -0.8461       1.0998
  116       1.9104        2.5133      -0.6030         0.0106       1.8998
  117      26.6095       -0.7546      27.3642         0.7938      25.8157
  119      -0.1485       -0.1646       0.0161        -1.2993       1.1508
 Sum       29.1651        7.0995      22.0656        -5.0058      34.1709

 Contributions to Isotropic shielding for atom  104 (    31.1242 ppm):
                         Standard Origin              Atomic Origin
 NLMO      Total    Paramagnetic  Diamagnetic   Paramagnetic  Diamagnetic
   81      -0.6237        1.4085      -2.0322        -1.3007       0.6770
   82      -0.1298        0.3195      -0.4493        -1.0707       0.9409
   86      -0.4446        1.7309      -2.1754        -1.5471       1.1026
   87       1.5063        1.2474       0.2589         0.5488       0.9575
  115       0.9362        3.5393      -2.6030        -0.2545       1.1907
  117      -0.1622        0.0711      -0.2333        -1.3347       1.1725
  118       0.1278        4.7551      -4.6273        -0.7629       0.8908
  119      26.1029       -1.2204      27.3233         0.6065      25.4965
  122       0.0168       -0.7444       0.7612        -1.6716       1.6884
  127      -0.1992       -2.3362       2.1370        -0.6231       0.4239
  193      -0.5266       -0.4507      -0.0759         0.4935      -1.0201
 Sum       26.6040        8.3200      18.2839        -6.9166      33.5205

 Contributions to Isotropic shielding for atom  105 (    30.5860 ppm):
                         Standard Origin              Atomic Origin
 NLMO      Total    Paramagnetic  Diamagnetic   Paramagnetic  Diamagnetic
  120      -1.1630        0.7026      -1.8656        -2.0598       0.8968
  121      -0.4039        1.8512      -2.2551        -1.9581       1.5542
  122      -1.2176        0.7022      -1.9198        -2.0014       0.7838
  123       0.8729        1.0772      -0.2043        -0.5918       1.4647
  124      26.3241        0.5593      25.7647         1.0996      25.2244
  125       1.1444        4.1043      -2.9599        -0.8985       2.0430
  126       1.8035       -0.4119       2.2154        -0.0685       1.8719
  191       0.5019       -1.3876       1.8894         1.2819      -0.7800
  193       1.4350       -0.7313       2.1663         1.4960      -0.0611
 Sum       29.2972        6.4661      22.8312        -3.7005      32.9977

 Contributions to Isotropic shielding for atom  106 (    30.5153 ppm):
                         Standard Origin              Atomic Origin
 NLMO      Total    Paramagnetic  Diamagnetic   Paramagnetic  Diamagnetic
  120      -0.5256        0.1123      -0.6379        -1.1442       0.6185
  121      -0.0364        0.7339      -0.7703        -1.0667       1.0304
  123       0.5972        2.5253      -1.9281        -1.4775       2.0746
  124       0.7440        3.8129      -3.0689        -1.2420       1.9860
  125      26.0529        0.3994      25.6535         0.8885      25.1644
  126       1.6898        0.2701       1.4198        -0.3058       1.9957
  193       0.7025       -0.9750       1.6775         1.1705      -0.4679
 Sum       29.2244        6.8789      22.3455        -3.1772      32.4017

 Contributions to Isotropic shielding for atom  107 (    30.6784 ppm):
                         Standard Origin              Atomic Origin
 NLMO      Total    Paramagnetic  Diamagnetic   Paramagnetic  Diamagnetic
  120      -0.6809        0.2583      -0.9392        -1.5779       0.8970
  121      -0.1508        0.6908      -0.8416        -1.6826       1.5318
  122      -0.3301        0.4965      -0.8266        -1.1784       0.8483
  123       2.7991       -5.4336       8.2327         1.3841       1.4150
  124       1.4164        0.3472       1.0693        -0.4590       1.8754
  125       1.5483        0.5851       0.9632        -0.4973       2.0456
  126      25.9082        1.0593      24.8489         0.7469      25.1613
  194       0.1215       -0.8809       1.0024        -0.4069       0.5283
 Sum       30.6317       -2.8773      33.5090        -3.6711      34.3028

 Contributions to Isotropic shielding for atom  108 (    30.9390 ppm):
                         Standard Origin              Atomic Origin
 NLMO      Total    Paramagnetic  Diamagnetic   Paramagnetic  Diamagnetic
   76      -0.6394        0.1181      -0.7575        -1.4923       0.8529
   81      -0.6375        1.6623      -2.2998        -1.3631       0.7257
   82       1.2339       -0.8031       2.0370         0.0419       1.1920
   86      -0.2814        1.0325      -1.3139        -1.0902       0.8089
   87      -0.2754        1.1841      -1.4594        -1.1550       0.8796
  118      -0.3023        0.5356      -0.8380        -1.0283       0.7260
  122       0.6647       -0.6086       1.2734         0.0846       0.5801
  127      25.9914        0.1240      25.8674         0.6405      25.3509
  128       1.6656        3.4030      -1.7374        -0.3186       1.9842
  129       1.1776        2.5022      -1.3246        -0.6534       1.8310
  190       1.4667        0.0306       1.4361         1.4685      -0.0018
  193      -0.9177        0.1205      -1.0382         0.3672      -1.2849
 Sum       29.1464        9.3012      19.8452        -4.4981      33.6446

 Contributions to Isotropic shielding for atom  109 (    30.7068 ppm):
                         Standard Origin              Atomic Origin
 NLMO      Total    Paramagnetic  Diamagnetic   Paramagnetic  Diamagnetic
   75      -0.5918        0.8351      -1.4269        -1.3023       0.7105
   76      -1.0030        0.3066      -1.3096        -2.3663       1.3633
   79      -0.4229        1.1574      -1.5803        -1.0616       0.6386
   82       1.8093       -1.4782       3.2875         0.5539       1.2554
  127       1.5289        3.4118      -1.8829        -0.4396       1.9685
  128      25.9547        0.2432      25.7115         0.6223      25.3324
  129       1.3943        2.0702      -0.6759        -0.4035       1.7978
 Sum       28.6694        6.5461      22.1233        -4.3971      33.0665

 Contributions to Isotropic shielding for atom  110 (    31.8789 ppm):
                         Standard Origin              Atomic Origin
 NLMO      Total    Paramagnetic  Diamagnetic   Paramagnetic  Diamagnetic
   75      -0.3729        1.0353      -1.4082        -0.9922       0.6193
   76      -1.2686        0.4144      -1.6829        -2.4704       1.2018
   79      -0.6033        1.4307      -2.0340        -1.2751       0.6718
   82       1.8526       -2.4112       4.2638         1.0868       0.7659
   86      -0.1916        0.4733      -0.6649        -1.2041       1.0125
  127       1.7422        3.3052      -1.5630        -0.1739       1.9161
  128       1.8347        2.6468      -0.8121        -0.0632       1.8980
  129      26.6691        0.5989      26.0702         0.9807      25.6884
 Sum       29.6623        7.4934      22.1689        -4.1116      33.7739
 
 1\1\GINC-PCSN02\SP\RHF\STO-3G\C45H56N4O5\ABENIDD\30-May-2024\0\\# nmr=
 giao hf/sto-3g pop=nbo geom=connectivity\\pleiokomenine_C_1a\\0,1\C,0,
 0.,0.,0.\C,0,1.4004,0.,0.\C,0,2.0934,1.2285,0.\C,0,1.4074,2.4503,-0.02
 98\C,0,0.0242,2.4404,-0.0892\C,0,-0.663,1.2153,-0.0494\N,0,-0.8588,3.5
 474,-0.2341\C,0,-2.1455,1.4847,-0.0657\C,0,-2.0845,2.8941,-0.772\C,0,-
 3.0932,0.5643,-0.8496\C,0,-1.9184,2.6762,-2.3405\C,0,-3.1173,1.9211,-2
 .9275\C,0,-4.0149,1.43,-1.7753\N,0,-3.7809,-0.2209,0.1812\C,0,-4.9651,
 -0.9296,-0.2776\C,0,-5.9165,-0.1093,-1.1482\C,0,-5.1747,0.5708,-2.2989
 \C,0,-2.6259,1.3826,1.402\C,0,-3.9368,0.6076,1.3638\C,0,-4.5553,2.731,
 -1.0892\C,0,-3.4054,3.6724,-0.6372\C,0,-3.6868,4.3223,0.7061\O,0,-4.53
 51,3.9489,1.507\O,0,-2.9203,5.4373,0.8721\C,0,-3.0957,6.0853,2.1313\C,
 0,-0.3072,4.7369,-0.8644\C,0,2.1539,-1.3093,-0.0757\C,0,2.5445,-1.6912
 ,-1.4891\C,0,1.556,-1.9139,-2.4589\C,0,3.9037,-1.8004,-1.8521\C,0,4.28
 61,-2.1275,-3.161\C,0,3.3036,-2.3518,-4.1091\C,0,1.9496,-2.2223,-3.750
 8\N,0,3.4614,-2.723,-5.4751\C,0,1.1061,-2.3702,-4.9916\C,0,2.1204,-3.2
 695,-5.8002\C,0,-0.2628,-3.064,-4.9531\C,0,2.0307,-4.7624,-5.2674\C,0,
 0.623,-5.3311,-5.4431\C,0,-0.3249,-4.2366,-5.9803\N,0,-1.3013,-1.9698,
 -5.178\C,0,-2.532,-2.4524,-5.9097\C,0,-2.8418,-3.8928,-5.5605\C,0,-1.7
 546,-4.816,-6.1104\C,0,0.8303,-0.9222,-5.4598\C,0,-0.5988,-0.8917,-5.9
 514\C,0,0.2563,-3.8286,-7.3765\C,0,1.7465,-3.3818,-7.2887\C,0,2.0423,-
 2.1689,-8.1506\O,0,1.197,-1.3871,-8.5669\O,0,3.3673,-2.1027,-8.4544\C,
 0,3.7359,-0.9614,-9.229\C,0,4.678,-3.4478,-5.8111\O,0,-1.6973,-1.4687,
 -3.9547\H,0,-0.5649,-0.9283,0.0068\H,0,3.1811,1.2358,-0.0031\H,0,1.966
 5,3.3781,-0.0416\H,0,-2.5291,-0.1417,-1.4732\H,0,-1.0004,2.1257,-2.581
 5\H,0,-1.8212,3.6406,-2.8555\H,0,-3.6788,2.5785,-3.6033\H,0,-2.7616,1.
 0854,-3.5413\H,0,-4.6273,-1.7937,-0.8645\H,0,-5.5121,-1.3525,0.5739\H,
 0,-6.6894,-0.7695,-1.5591\H,0,-6.4391,0.6338,-0.5361\H,0,-4.7893,-0.20
 22,-2.9768\H,0,-5.8761,1.1778,-2.8836\H,0,-1.9204,0.795,2.0077\H,0,-2.
 7119,2.3393,1.9164\H,0,-4.0518,-0.003,2.2658\H,0,-4.7978,1.2753,1.3122
 \H,0,-5.2385,2.4955,-0.2731\H,0,-5.1768,3.2821,-1.8098\H,0,-3.4005,4.5
 157,-1.3451\H,0,-2.8706,5.3986,2.9534\H,0,-2.3955,6.9237,2.1809\H,0,-4
 .1134,6.4778,2.2198\H,0,0.1999,4.5078,-1.8085\H,0,0.4062,5.2279,-0.193
 8\H,0,-1.0964,5.4643,-1.0773\H,0,3.0435,-1.243,0.564\H,0,1.5498,-2.119
 5,0.3535\H,0,0.4997,-1.7978,-2.226\H,0,4.6792,-1.6182,-1.1111\H,0,5.33
 85,-2.1947,-3.4102\H,0,-0.4836,-3.4573,-3.9506\H,0,2.3159,-4.8446,-4.2
 113\H,0,2.7426,-5.4031,-5.8043\H,0,0.6521,-6.1877,-6.1288\H,0,0.2658,-
 5.7199,-4.4808\H,0,-3.3479,-1.7801,-5.6207\H,0,-2.3649,-2.3443,-6.9855
 \H,0,-2.9114,-4.0124,-4.4725\H,0,-3.8123,-4.1842,-5.977\H,0,-1.8402,-5
 .7798,-5.593\H,0,-1.9739,-5.0296,-7.1644\H,0,1.5396,-0.5474,-6.2005\H,
 0,0.8913,-0.2106,-4.6239\H,0,-0.6728,-1.1228,-7.0126\H,0,-1.1082,0.057
 1,-5.7538\H,0,-0.3766,-3.076,-7.851\H,0,0.2077,-4.6952,-8.0515\H,0,2.3
 355,-4.1894,-7.7502\H,0,3.2604,-0.9996,-10.2139\H,0,4.8205,-0.9813,-9.
 3662\H,0,3.4705,-0.038,-8.7045\H,0,4.6336,-3.8236,-6.8378\H,0,5.5469,-
 2.7837,-5.7517\H,0,4.8447,-4.3042,-5.148\\Version=ES64L-G16RevB.01\Sta
 te=1-A\HF=-2300.2209359\RMSD=3.505e-09\Dipole=0.781213,-0.8633504,-2.1
 527142\Quadrupole=-4.9001951,8.8089812,-3.908786,-2.5747823,-0.5319686
 ,10.0326866\PG=C01 [X(C45H56N4O5)]\\@


 IF YOU WISH TO UNDERSTAND THE FRAGRANCE OF THE ROSE, 
 OR THE TENACITY OF THE OAK; 
 IF YOU ARE NOT SATISFIED UNTIL YOU KNOW THE SECRET PATHS 
 BY WHICH THE SUNSHINE AND THE AIR ACHIEVE THESE WONDERS; 
 IF YOU WISH TO SEE THE PATTERN WHICH UNDERLIES ONE LARGE FIELD OF 
 HUMAN EXPERIENCE AND HUMAN MEASUREMENT, THEN TAKE UP CHEMISTRY.

                                         -- C. A. COULSON, 1973.
 Job cpu time:       0 days  0 hours 11 minutes 45.2 seconds.
 Elapsed time:       0 days  0 hours  1 minutes 59.6 seconds.
 File lengths (MBytes):  RWF=     67 Int=      0 D2E=      0 Chk=     10 Scr=      1
 Normal termination of Gaussian 16 at Thu May 30 09:06:50 2024.
