 Entering Gaussian System, Link 0=g16
 Input=1_pleiokomenine_1a_c_3.gjf
 Output=1_pleiokomenine_1a_c_3.log
 Initial command:
 /opt/gaussian/g16/l1.exe "/data/abenidd/Elvis/pleiokomenine_C/NMR_HF/1a/1_pleiokomenine_1a_c_3/Gau-25922.inp" -scrdir="/data/abenidd/Elvis/pleiokomenine_C/NMR_HF/1a/1_pleiokomenine_1a_c_3/"
 Entering Link 1 = /opt/gaussian/g16/l1.exe PID=     25924.
  
 Copyright (c) 1988-2017, Gaussian, Inc.  All Rights Reserved.
  
 This is part of the Gaussian(R) 16 program.  It is based on
 the Gaussian(R) 09 system (copyright 2009, Gaussian, Inc.),
 the Gaussian(R) 03 system (copyright 2003, Gaussian, Inc.),
 the Gaussian(R) 98 system (copyright 1998, Gaussian, Inc.),
 the Gaussian(R) 94 system (copyright 1995, Gaussian, Inc.),
 the Gaussian 92(TM) system (copyright 1992, Gaussian, Inc.),
 the Gaussian 90(TM) system (copyright 1990, Gaussian, Inc.),
 the Gaussian 88(TM) system (copyright 1988, Gaussian, Inc.),
 the Gaussian 86(TM) system (copyright 1986, Carnegie Mellon
 University), and the Gaussian 82(TM) system (copyright 1983,
 Carnegie Mellon University). Gaussian is a federally registered
 trademark of Gaussian, Inc.
  
 This software contains proprietary and confidential information,
 including trade secrets, belonging to Gaussian, Inc.
  
 This software is provided under written license and may be
 used, copied, transmitted, or stored only in accord with that
 written license.
  
 The following legend is applicable only to US Government
 contracts under FAR:
  
                    RESTRICTED RIGHTS LEGEND
  
 Use, reproduction and disclosure by the US Government is
 subject to restrictions as set forth in subparagraphs (a)
 and (c) of the Commercial Computer Software - Restricted
 Rights clause in FAR 52.227-19.
  
 Gaussian, Inc.
 340 Quinnipiac St., Bldg. 40, Wallingford CT 06492
  
  
 ---------------------------------------------------------------
 Warning -- This program may not be used in any manner that
 competes with the business of Gaussian, Inc. or will provide
 assistance to any competitor of Gaussian, Inc.  The licensee
 of this program is prohibited from giving any competitor of
 Gaussian, Inc. access to this program.  By using this program,
 the user acknowledges that Gaussian, Inc. is engaged in the
 business of creating and licensing software in the field of
 computational chemistry and represents and warrants to the
 licensee that it is not a competitor of Gaussian, Inc. and that
 it will not use this program in any manner prohibited above.
 ---------------------------------------------------------------
  

 Cite this work as:
 Gaussian 16, Revision B.01,
 M. J. Frisch, G. W. Trucks, H. B. Schlegel, G. E. Scuseria, 
 M. A. Robb, J. R. Cheeseman, G. Scalmani, V. Barone, 
 G. A. Petersson, H. Nakatsuji, X. Li, M. Caricato, A. V. Marenich, 
 J. Bloino, B. G. Janesko, R. Gomperts, B. Mennucci, H. P. Hratchian, 
 J. V. Ortiz, A. F. Izmaylov, J. L. Sonnenberg, D. Williams-Young, 
 F. Ding, F. Lipparini, F. Egidi, J. Goings, B. Peng, A. Petrone, 
 T. Henderson, D. Ranasinghe, V. G. Zakrzewski, J. Gao, N. Rega, 
 G. Zheng, W. Liang, M. Hada, M. Ehara, K. Toyota, R. Fukuda, 
 J. Hasegawa, M. Ishida, T. Nakajima, Y. Honda, O. Kitao, H. Nakai, 
 T. Vreven, K. Throssell, J. A. Montgomery, Jr., J. E. Peralta, 
 F. Ogliaro, M. J. Bearpark, J. J. Heyd, E. N. Brothers, K. N. Kudin, 
 V. N. Staroverov, T. A. Keith, R. Kobayashi, J. Normand, 
 K. Raghavachari, A. P. Rendell, J. C. Burant, S. S. Iyengar, 
 J. Tomasi, M. Cossi, J. M. Millam, M. Klene, C. Adamo, R. Cammi, 
 J. W. Ochterski, R. L. Martin, K. Morokuma, O. Farkas, 
 J. B. Foresman, and D. J. Fox, Gaussian, Inc., Wallingford CT, 2016.
 
 ******************************************
 Gaussian 16:  ES64L-G16RevB.01 20-Dec-2017
                30-May-2024 
 ******************************************
 %nprocshared=8
 Will use up to    8 processors via shared memory.
 ----------------------------------------------
 # nmr=giao hf/sto-3g pop=nbo geom=connectivity
 ----------------------------------------------
 1/38=1,57=2,172=1/1;
 2/12=2,17=6,18=5,40=1/2;
 3/6=3,11=9,25=1,30=1/1,2,3,8;
 4//1;
 5/5=2,38=5/2;
 8/6=1,10=90,11=11/1;
 10/13=100,45=16/2;
 6/7=2,8=2,9=2,10=2,28=1,40=1,64=1/1,7;
 99/9=1/99;
 ------------------
 pleiokomenine_C_1a
 ------------------
 Symbolic Z-matrix:
 Charge =  0 Multiplicity = 1
 C                     0.        0.        0. 
 C                     1.4025    0.        0. 
 C                     2.0869    1.2331    0. 
 C                     1.3933    2.4531    0.0037 
 C                     0.009     2.4404    0.0039 
 C                    -0.6701    1.2121    0.0276 
 N                    -0.8834    3.5463   -0.0242 
 C                    -2.1481    1.4728    0.1615 
 C                    -2.1548    2.918    -0.4723 
 C                    -3.1667    0.5879   -0.5712 
 C                    -2.1421    2.7816   -2.0571 
 C                    -3.3908    2.0473   -2.5629 
 C                    -4.1745    1.4961   -1.3553 
 N                    -3.7487   -0.2601    0.4739 
 C                    -4.9752   -0.9466    0.0997 
 C                    -6.0066   -0.0832   -0.6256 
 C                    -5.3816    0.6608   -1.8059 
 C                    -2.4853    1.2896    1.662 
 C                    -3.7895    0.5045    1.7098 
 C                    -4.6441    2.7582   -0.5538 
 C                    -3.4558    3.6819   -0.1691 
 C                    -3.604     4.2596    1.2274 
 O                    -4.3663    3.8359    2.0876 
 O                    -2.8285    5.3705    1.3737 
 C                    -2.8806    5.9537    2.6752 
 C                    -0.3873    4.7677   -0.6386 
 C                     2.1688   -1.3089    0.007 
 C                     1.7987   -2.2084    1.1672 
 C                     0.7898   -3.1676    1.0087 
 C                     2.399    -2.0369    2.4303 
 C                     1.9823   -2.7866    3.5377 
 C                     0.9355   -3.6813    3.3867 
 C                     0.3618   -3.8761    2.119 
 N                     0.2832   -4.4461    4.3926 
 C                    -0.7191   -4.9228    2.2194 
 C                    -1.0283   -4.731     3.7599 
 C                    -2.0282   -4.7689    1.4243 
 C                    -1.985    -3.4684    3.9359 
 C                    -3.3249   -3.6797    3.2176 
 C                    -3.2474   -4.9766    2.3858 
 N                    -1.9188   -5.7566    0.2746 
 C                    -3.2422   -6.1153   -0.3481 
 C                    -4.3805   -6.3663    0.6215 
 C                    -4.535    -5.1964    1.5858 
 C                    -0.1037   -6.2548    1.7214 
 C                    -1.1577   -6.9133    0.8403 
 C                    -3.0638   -6.1226    3.4393 
 C                    -1.8319   -5.8986    4.352 
 C                    -1.0774   -7.1894    4.6163 
 O                    -1.1844   -8.2078    3.9434 
 O                    -0.3208   -7.0881    5.7429 
 C                     0.4555   -8.25      6.0349 
 C                     0.369    -3.934     5.7527 
 O                    -1.1604   -5.1955   -0.7445 
 H                    -0.5652   -0.9272    0.0186 
 H                     3.1746    1.2506    0.0034 
 H                     1.9483    3.3839    0.0098 
 H                    -2.6641   -0.0789   -1.285 
 H                    -2.0979    3.7717   -2.529 
 H                    -1.2497    2.2518   -2.4128 
 H                    -4.0152    2.7319   -3.1507 
 H                    -3.0927    1.2415   -3.2452 
 H                    -4.7      -1.7776   -0.5629 
 H                    -5.4346   -1.4165    0.9779 
 H                    -6.8182   -0.7226   -0.9927 
 H                    -6.4639    0.624     0.0749 
 H                    -5.0666   -0.0733   -2.5591 
 H                    -6.1369    1.2952   -2.2849 
 H                    -2.5256    2.2173    2.2319 
 H                    -1.7233    0.6781    2.1675 
 H                    -3.8133   -0.1538    2.5848 
 H                    -4.6542    1.1663    1.7781 
 H                    -5.3335    3.3421   -1.1807 
 H                    -5.2432    2.4774    0.3126 
 H                    -3.5206    4.5603   -0.8295 
 H                    -3.8863    6.3314    2.8838 
 H                    -2.5718    5.229     3.4353 
 H                    -2.1827    6.7952    2.6973 
 H                     0.0395    4.5854   -1.6314 
 H                     0.3791    5.2295   -0.007 
 H                    -1.1925    5.5003   -0.75 
 H                     3.2496   -1.1201    0.0396 
 H                     1.9903   -1.826    -0.9448 
 H                     0.3263   -3.3326    0.0388 
 H                     3.1818   -1.293     2.5608 
 H                     2.4555   -2.6259    4.4991 
 H                    -2.1095   -3.7889    0.9333 
 H                    -2.1795   -3.2779    4.9992 
 H                    -1.5214   -2.5488    3.5573 
 H                    -3.5444   -2.8126    2.5831 
 H                    -4.1382   -3.7357    3.9522 
 H                    -3.4987   -5.266    -0.995 
 H                    -3.0562   -6.9862   -0.9866 
 H                    -5.3112   -6.4916    0.0559 
 H                    -4.2239   -7.3046    1.1618 
 H                    -4.7835   -4.291     1.0168 
 H                    -5.3814   -5.3833    2.2576 
 H                     0.7722   -6.0667    1.0838 
 H                     0.2682   -6.9103    2.5074 
 H                    -1.8497   -7.5496    1.3876 
 H                    -0.7273   -7.4794    0.0078 
 H                    -3.0455   -7.1024    2.9636 
 H                    -3.9543   -6.1574    4.0839 
 H                    -2.2237   -5.6077    5.3387 
 H                     1.0626   -8.0381    6.9193 
 H                     1.1269   -8.484     5.2026 
 H                    -0.1982   -9.0989    6.2576 
 H                    -0.2874   -4.4987    6.4218 
 H                     1.3881   -4.0447    6.1387 
 H                     0.0821   -2.8782    5.8159 
 
 Stoichiometry    C45H56N4O5
 Framework group  C1[X(C45H56N4O5)]
 Deg. of freedom   324
 Full point group                 C1      NOp   1
 Largest Abelian subgroup         C1      NOp   1
 Largest concise Abelian subgroup C1      NOp   1
                         Standard orientation:                         
 ---------------------------------------------------------------------
 Center     Atomic      Atomic             Coordinates (Angstroms)
 Number     Number       Type             X           Y           Z
 ---------------------------------------------------------------------
      1          6           0        1.671805   -1.565673   -1.420623
      2          6           0        1.454009   -2.859639   -1.915824
      3          6           0        2.493946   -3.808557   -1.832016
      4          6           0        3.734461   -3.483803   -1.261795
      5          6           0        3.937559   -2.203416   -0.776193
      6          6           0        2.893335   -1.267431   -0.839332
      7          7           0        5.113520   -1.656736   -0.194437
      8          6           0        3.320409   -0.009388   -0.128478
      9          6           0        4.876778   -0.193256   -0.313567
     10          6           0        2.901064    1.368664   -0.660048
     11          6           0        5.278001    0.285331   -1.776554
     12          6           0        4.958498    1.771732   -1.983467
     13          6           0        4.163994    2.289852   -0.768305
     14          7           0        1.853692    1.823782    0.259702
     15          6           0        1.531165    3.239596    0.175690
     16          6           0        2.736453    4.177204    0.116720
     17          6           0        3.725688    3.748022   -0.967017
     18          6           0        2.700688   -0.082089    1.289064
     19          6           0        2.157450    1.309591    1.585246
     20          6           0        5.142059    2.167958    0.450035
     21          6           0        5.687495    0.723301    0.619565
     22          6           0        5.780492    0.310192    2.077854
     23          8           0        5.217358    0.875522    3.007288
     24          8           0        6.643767   -0.733334    2.228560
     25          6           0        6.758723   -1.209237    3.569098
     26          6           0        6.377289   -2.252446   -0.598712
     27          6           0        0.115989   -3.231651   -2.525574
     28          6           0       -1.050652   -2.991834   -1.590922
     29          6           0       -1.732590   -1.768524   -1.630130
     30          6           0       -1.406859   -3.952622   -0.623866
     31          6           0       -2.409361   -3.693214    0.319384
     32          6           0       -3.027967   -2.453697    0.317314
     33          6           0       -2.696010   -1.510131   -0.669412
     34          7           0       -3.973975   -1.943881    1.248660
     35          6           0       -3.534683   -0.272225   -0.473907
     36          6           0       -3.823551   -0.478797    1.068629
     37          6           0       -2.922439    1.124313   -0.684739
     38          6           0       -2.560200    0.028240    1.897645
     39          6           0       -2.308325    1.525163    1.670233
     40          6           0       -3.247716    2.026478    0.553956
     41          7           0       -3.473058    1.607895   -2.016016
     42          6           0       -3.392730    3.100087   -2.202348
     43          6           0       -3.773528    3.936433   -0.996375
     44          6           0       -2.984542    3.500802    0.232501
     45          6           0       -4.701861   -0.354022   -1.489757
     46          6           0       -4.855632    1.041024   -2.082275
     47          6           0       -4.693792    1.849555    1.132272
     48          6           0       -4.982101    0.393169    1.575660
     49          6           0       -6.387509   -0.046518    1.205804
     50          8           0       -7.092509    0.507675    0.370804
     51          8           0       -6.787594   -1.094231    1.976623
     52          6           0       -8.085832   -1.595175    1.657954
     53          6           0       -3.966121   -2.545537    2.574340
     54          8           0       -2.728460    1.056426   -3.050436
     55          1           0        0.891484   -0.810832   -1.449085
     56          1           0        2.340166   -4.817566   -2.208395
     57          1           0        4.511453   -4.237255   -1.206610
     58          1           0        2.441903    1.281654   -1.654201
     59          1           0        6.349289    0.125174   -1.954411
     60          1           0        4.765899   -0.299440   -2.550752
     61          1           0        5.888398    2.340379   -2.109915
     62          1           0        4.391354    1.900137   -2.913827
     63          1           0        0.937564    3.389959   -0.735553
     64          1           0        0.872029    3.532191    1.002138
     65          1           0        2.390902    5.196060   -0.094983
     66          1           0        3.230581    4.215838    1.093603
     67          1           0        3.246277    3.862738   -1.948059
     68          1           0        4.592868    4.419114   -0.962838
     69          1           0        3.378698   -0.447445    2.059683
     70          1           0        1.844892   -0.772870    1.312350
     71          1           0        1.256613    1.249722    2.205293
     72          1           0        2.884061    1.917368    2.126536
     73          1           0        6.001524    2.833731    0.284863
     74          1           0        4.684340    2.544144    1.365128
     75          1           0        6.734917    0.746609    0.281517
     76          1           0        7.196229   -0.438523    4.211120
     77          1           0        5.782939   -1.525870    3.951051
     78          1           0        7.425165   -2.076134    3.564618
     79          1           0        6.473564   -2.314129   -1.688652
     80          1           0        6.476318   -3.259843   -0.180511
     81          1           0        7.220567   -1.666180   -0.221041
     82          1           0        0.112746   -4.286785   -2.828095
     83          1           0       -0.018659   -2.660453   -3.453356
     84          1           0       -1.489636   -1.019836   -2.380598
     85          1           0       -0.880576   -4.903855   -0.586783
     86          1           0       -2.654976   -4.447303    1.057663
     87          1           0       -1.834663    1.088030   -0.838094
     88          1           0       -2.708504   -0.146759    2.971008
     89          1           0       -1.650775   -0.527507    1.636842
     90          1           0       -1.256045    1.686669    1.407072
     91          1           0       -2.479744    2.078951    2.601987
     92          1           0       -2.347103    3.303874   -2.468273
     93          1           0       -4.017628    3.336097   -3.070994
     94          1           0       -3.556324    4.989822   -1.208509
     95          1           0       -4.850722    3.878347   -0.814350
     96          1           0       -1.914061    3.660390    0.048480
     97          1           0       -3.251497    4.136868    1.085024
     98          1           0       -4.449809   -1.027437   -2.321681
     99          1           0       -5.631781   -0.754128   -1.088572
    100          1           0       -5.522665    1.686103   -1.514631
    101          1           0       -5.170281    1.028793   -3.130900
    102          1           0       -5.448318    2.221567    0.440223
    103          1           0       -4.803419    2.494961    2.016096
    104          1           0       -4.980823    0.396353    2.676431
    105          1           0       -8.278898   -2.463868    2.293355
    106          1           0       -8.129273   -1.915317    0.612068
    107          1           0       -8.847882   -0.837463    1.864605
    108          1           0       -4.612859   -1.986722    3.257639
    109          1           0       -4.356364   -3.568138    2.531765
    110          1           0       -2.961292   -2.570824    3.011031
 ---------------------------------------------------------------------
 Rotational constants (GHZ):           0.0959172           0.0333176           0.0302227
 Standard basis: STO-3G (5D, 7F)
 There are   326 symmetry adapted cartesian basis functions of A   symmetry.
 There are   326 symmetry adapted basis functions of A   symmetry.
   326 basis functions,   978 primitive gaussians,   326 cartesian basis functions
   197 alpha electrons      197 beta electrons
       nuclear repulsion energy      8164.0775852786 Hartrees.
 NAtoms=  110 NActive=  110 NUniq=  110 SFac= 1.00D+00 NAtFMM=   60 NAOKFM=T Big=T
 Integral buffers will be    131072 words long.
 Raffenetti 1 integral format.
 Two-electron integral symmetry is turned on.
 One-electron integrals computed using PRISM.
 NBasis=   326 RedAO= T EigKep=  1.72D-01  NBF=   326
 NBsUse=   326 1.00D-06 EigRej= -1.00D+00 NBFU=   326
 ExpMin= 1.69D-01 ExpMax= 1.31D+02 ExpMxC= 1.31D+02 IAcc=3 IRadAn=         5 AccDes= 0.00D+00
 Harris functional with IExCor=  205 and IRadAn=       5 diagonalized for initial guess.
 HarFok:  IExCor=  205 AccDes= 0.00D+00 IRadAn=         5 IDoV= 1 UseB2=F ITyADJ=14
 ICtDFT=  3500011 ScaDFX=  1.000000  1.000000  1.000000  1.000000
 FoFCou: FMM=F IPFlag=           0 FMFlag=      100000 FMFlg1=        2001
         NFxFlg=           0 DoJE=T BraDBF=F KetDBF=T FulRan=T
         wScrn=  0.000000 ICntrl=       500 IOpCl=  0 I1Cent=   200000004 NGrid=           0
         NMat0=    1 NMatS0=      1 NMatT0=    0 NMatD0=    1 NMtDS0=    0 NMtDT0=    0
 Petite list used in FoFCou.
 Requested convergence on RMS density matrix=1.00D-08 within 128 cycles.
 Requested convergence on MAX density matrix=1.00D-06.
 Requested convergence on             energy=1.00D-06.
 No special actions if energy rises.
 Integral accuracy reduced to 1.0D-05 until final iterations.
 Initial convergence to 1.0D-05 achieved.  Increase integral accuracy.
 SCF Done:  E(RHF) =  -2300.22593697     A.U. after   15 cycles
            NFock= 15  Conv=0.97D-08     -V/T= 2.0092
 Range of M.O.s used for correlation:     1   326
 NBasis=   326 NAE=   197 NBE=   197 NFC=     0 NFV=     0
 NROrb=    326 NOA=   197 NOB=   197 NVA=   129 NVB=   129
          Differentiating once with respect to magnetic field using GIAOs.
          Electric field/nuclear overlap derivatives assumed to be zero.
 FoFCou: FMM=F IPFlag=           0 FMFlag=      100000 FMFlg1=        2001
         NFxFlg=           0 DoJE=F BraDBF=F KetDBF=T FulRan=T
         wScrn=  0.000000 ICntrl=      6100 IOpCl=  0 I1Cent=           7 NGrid=         110
         NMat0=    1 NMatS0=      1 NMatT0=    0 NMatD0=    1 NMtDS0=    0 NMtDT0=    0
 Symmetry not used in FoFCou.
 FoFJK:  IHMeth= 1 ICntrl=    6127 DoSepK=F KAlg= 0 I1Cent=           0 FoldK=F
 IRaf=         1 NMat=       1 IRICut=       1 DoRegI=T DoRafI=F ISym2E= 0 IDoP0=0 IntGTp=1.
          There are     3 degrees of freedom in the 1st order CPHF.  IDoFFX=0 NUNeed=     3.
      3 vectors produced by pass  0 Test12= 8.47D-13 3.33D-08 XBig12= 1.70D+02 1.76D+00.
 AX will form     3 AO Fock derivatives at one time.
      3 vectors produced by pass  1 Test12= 8.47D-13 3.33D-08 XBig12= 6.84D-01 2.52D-01.
      3 vectors produced by pass  2 Test12= 8.47D-13 3.33D-08 XBig12= 1.92D-02 3.62D-02.
      3 vectors produced by pass  3 Test12= 8.47D-13 3.33D-08 XBig12= 6.28D-04 1.08D-02.
      3 vectors produced by pass  4 Test12= 8.47D-13 3.33D-08 XBig12= 2.19D-05 8.99D-04.
      3 vectors produced by pass  5 Test12= 8.47D-13 3.33D-08 XBig12= 3.24D-07 8.06D-05.
      3 vectors produced by pass  6 Test12= 8.47D-13 3.33D-08 XBig12= 1.05D-08 2.25D-05.
      3 vectors produced by pass  7 Test12= 8.47D-13 3.33D-08 XBig12= 2.39D-10 1.69D-06.
      3 vectors produced by pass  8 Test12= 8.47D-13 3.33D-08 XBig12= 4.01D-12 2.92D-07.
      2 vectors produced by pass  9 Test12= 8.47D-13 3.33D-08 XBig12= 1.29D-13 6.48D-08.
 InvSVY:  IOpt=1 It=  1 EMax= 1.78D-15
 Solved reduced A of dimension    29 with     3 vectors.
 Calculating GIAO nuclear magnetic shielding tensors.
 SCF GIAO Magnetic shielding tensor (ppm):
      1  C    Isotropic =   124.4475   Anisotropy =   153.5781
   XX=    88.2862   YX=    52.3653   ZX=   -39.9112
   XY=    53.2731   YY=    84.8602   ZY=   -28.1773
   XZ=   -32.1159   YZ=   -36.1190   ZZ=   200.1961
   Eigenvalues:    33.6999   112.8097   226.8328
      2  C    Isotropic =   119.5876   Anisotropy =   157.6906
   XX=    66.2862   YX=    -2.4680   ZX=   -62.2536
   XY=     0.1910   YY=   100.2166   ZY=   -39.3554
   XZ=   -51.6372   YZ=   -38.7201   ZZ=   192.2600
   Eigenvalues:    40.0421    94.0060   224.7147
      3  C    Isotropic =   119.4363   Anisotropy =   148.1698
   XX=   122.4260   YX=    -3.4226   ZX=   -39.1717
   XY=    -2.1412   YY=    48.8200   ZY=   -55.2179
   XZ=   -38.4014   YZ=   -49.3214   ZZ=   187.0628
   Eigenvalues:    28.6867   111.4060   218.2162
      4  C    Isotropic =   133.7581   Anisotropy =   141.8323
   XX=    99.8308   YX=    49.2795   ZX=   -33.9275
   XY=    40.8404   YY=    96.6041   ZY=   -27.1485
   XZ=   -36.8744   YZ=   -27.7742   ZZ=   204.8395
   Eigenvalues:    52.9500   120.0115   228.3130
      5  C    Isotropic =   109.4596   Anisotropy =   125.8341
   XX=    61.7975   YX=    -0.2107   ZX=   -46.9013
   XY=     6.8708   YY=   103.3955   ZY=   -27.1100
   XZ=   -45.3311   YZ=   -41.4888   ZZ=   163.1858
   Eigenvalues:    42.3427    92.6872   193.3490
      6  C    Isotropic =   118.0232   Anisotropy =   138.9029
   XX=   113.5333   YX=    12.4632   ZX=   -39.2083
   XY=    11.8292   YY=    64.7752   ZY=   -48.1005
   XZ=   -45.7076   YZ=   -38.2758   ZZ=   175.7609
   Eigenvalues:    49.8439    93.6005   210.6251
      7  N    Isotropic =   274.2043   Anisotropy =    81.8985
   XX=   291.9711   YX=    30.6015   ZX=     7.7944
   XY=    46.9289   YY=   281.5745   ZY=     5.1748
   XZ=    21.6716   YZ=     7.3901   ZZ=   249.0673
   Eigenvalues:   241.9644   251.8452   328.8033
      8  C    Isotropic =   196.2543   Anisotropy =    13.7990
   XX=   197.8823   YX=    -8.8638   ZX=     1.7669
   XY=    -8.3354   YY=   195.5864   ZY=    -4.5485
   XZ=    -1.3796   YZ=     2.9769   ZZ=   195.2941
   Eigenvalues:   188.0288   195.2804   205.4536
      9  C    Isotropic =   180.9821   Anisotropy =    45.1672
   XX=   182.7190   YX=   -12.0912   ZX=    12.0051
   XY=    -9.2457   YY=   207.0111   ZY=     7.3212
   XZ=     1.4751   YZ=    -6.2583   ZZ=   153.2163
   Eigenvalues:   151.6003   180.2525   211.0936
     10  C    Isotropic =   190.3316   Anisotropy =    30.4535
   XX=   190.9259   YX=    -9.6467   ZX=   -18.4638
   XY=    -7.4620   YY=   192.5293   ZY=     5.3064
   XZ=   -13.4403   YZ=     5.0563   ZZ=   187.5395
   Eigenvalues:   172.9802   187.3806   210.6339
     11  C    Isotropic =   213.7538   Anisotropy =    19.0599
   XX=   207.1500   YX=     0.8601   ZX=    -4.1679
   XY=    -1.4001   YY=   212.1552   ZY=    -8.7921
   XZ=    -8.3078   YZ=    -3.3153   ZZ=   221.9561
   Eigenvalues:   204.0448   210.7561   226.4603
     12  C    Isotropic =   212.8350   Anisotropy =    21.2935
   XX=   210.3492   YX=    -6.1834   ZX=    -8.8639
   XY=    -6.9068   YY=   211.2203   ZY=     6.4268
   XZ=    -8.2400   YZ=     4.2550   ZZ=   216.9355
   Eigenvalues:   203.2549   208.2194   227.0307
     13  C    Isotropic =   213.6094   Anisotropy =     7.8863
   XX=   210.3486   YX=     0.7230   ZX=     4.1060
   XY=     0.3603   YY=   215.4471   ZY=    -3.3100
   XZ=     0.1098   YZ=    -3.6560   ZZ=   215.0325
   Eigenvalues:   208.9425   213.0187   218.8669
     14  N    Isotropic =   303.2683   Anisotropy =    54.7193
   XX=   282.4233   YX=   -49.8754   ZX=   -21.5711
   XY=   -32.1456   YY=   300.7004   ZY=    -6.3789
   XZ=   -24.0634   YZ=   -13.8294   ZZ=   326.6813
   Eigenvalues:   242.5886   327.4686   339.7479
     15  C    Isotropic =   205.2746   Anisotropy =    32.4738
   XX=   205.6104   YX=    -6.5213   ZX=     1.2657
   XY=    -7.5652   YY=   224.2245   ZY=    -5.9130
   XZ=    -0.1956   YZ=    -1.5352   ZZ=   185.9890
   Eigenvalues:   185.6286   203.2715   226.9238
     16  C    Isotropic =   224.1748   Anisotropy =     9.7102
   XX=   229.1624   YX=    -2.0187   ZX=    -4.7266
   XY=     0.5312   YY=   224.0473   ZY=     2.6347
   XZ=    -3.1072   YZ=    -1.5437   ZZ=   219.3147
   Eigenvalues:   217.9348   223.9413   230.6482
     17  C    Isotropic =   215.2902   Anisotropy =    19.3956
   XX=   213.0315   YX=    -5.5234   ZX=    -1.5781
   XY=   -10.4653   YY=   224.0092   ZY=    -1.6465
   XZ=    -0.3591   YZ=     0.0844   ZZ=   208.8299
   Eigenvalues:   207.6041   210.0459   228.2206
     18  C    Isotropic =   210.6642   Anisotropy =    35.9398
   XX=   199.6604   YX=    -2.3513   ZX=   -16.2461
   XY=    -4.7045   YY=   210.8583   ZY=     4.2354
   XZ=   -19.4441   YZ=    11.6188   ZZ=   221.4740
   Eigenvalues:   189.6201   207.7485   234.6241
     19  C    Isotropic =   200.0369   Anisotropy =    40.3568
   XX=   183.5495   YX=   -12.6165   ZX=     4.0402
   XY=   -13.2653   YY=   200.6369   ZY=   -15.6411
   XZ=    -2.4577   YZ=   -15.3165   ZZ=   215.9244
   Eigenvalues:   175.3107   197.8586   226.9414
     20  C    Isotropic =   212.2294   Anisotropy =    21.2649
   XX=   209.7918   YX=    -1.2251   ZX=    11.9845
   XY=    -3.2980   YY=   214.6763   ZY=    -6.1558
   XZ=    12.1768   YZ=    -6.2650   ZZ=   212.2200
   Eigenvalues:   198.4435   211.8387   226.4060
     21  C    Isotropic =   209.0483   Anisotropy =     9.8430
   XX=   204.4917   YX=     4.5547   ZX=     2.9315
   XY=     5.7641   YY=   209.0229   ZY=     2.1664
   XZ=     6.3870   YZ=    -5.8090   ZZ=   213.6301
   Eigenvalues:   199.4247   212.1098   215.6103
     22  C    Isotropic =    96.3012   Anisotropy =    98.3047
   XX=   119.9016   YX=    54.7830   ZX=   -57.0491
   XY=    50.6110   YY=    82.7789   ZY=    85.9420
   XZ=   -42.5368   YZ=    68.3018   ZZ=    86.2232
   Eigenvalues:   -28.1378   155.2038   161.8377
     23  O    Isotropic =  -133.7098   Anisotropy =   886.9434
   XX=    88.5934   YX=   432.2655   ZX=   138.5893
   XY=   437.8574   YY=   -72.3027   ZY=   -56.3933
   XZ=   159.8030   YZ=   -60.5574   ZZ=  -417.4201
   Eigenvalues:  -569.2685  -289.4467   457.5858
     24  O    Isotropic =   283.9139   Anisotropy =   139.9481
   XX=   363.7627   YX=   -18.2618   ZX=    61.6976
   XY=    -3.9197   YY=   367.9442   ZY=   -50.0692
   XZ=   -16.0579   YZ=    77.3294   ZZ=   120.0349
   Eigenvalues:   117.0662   357.4630   377.2127
     25  C    Isotropic =   197.4047   Anisotropy =    57.3062
   XX=   180.5143   YX=    -3.2223   ZX=     8.2668
   XY=    -2.5951   YY=   185.5317   ZY=   -19.9870
   XZ=     8.6098   YZ=   -19.4603   ZZ=   226.1681
   Eigenvalues:   177.4009   179.2044   235.6088
     26  C    Isotropic =   209.9108   Anisotropy =    42.0742
   XX=   227.4389   YX=   -16.8155   ZX=    -6.8188
   XY=   -18.1181   YY=   201.8606   ZY=     3.2664
   XZ=    -6.4100   YZ=     5.5626   ZZ=   200.4330
   Eigenvalues:   192.8560   198.9162   237.9603
     27  C    Isotropic =   206.2815   Anisotropy =    17.0538
   XX=   216.9136   YX=    -0.5849   ZX=    -5.0411
   XY=    -1.0732   YY=   199.6121   ZY=     6.0660
   XZ=    -0.5879   YZ=     5.3155   ZZ=   202.3188
   Eigenvalues:   195.0595   206.1343   217.6507
     28  C    Isotropic =   119.6233   Anisotropy =   160.9570
   XX=   122.6522   YX=    43.7922   ZX=    78.3506
   XY=    43.7892   YY=   114.8760   ZY=    29.2575
   XZ=    83.5035   YZ=    29.3711   ZZ=   121.3417
   Eigenvalues:    39.3673    92.5746   226.9280
     29  C    Isotropic =   120.9973   Anisotropy =   154.8834
   XX=   154.9904   YX=    22.0177   ZX=    63.9613
   XY=    15.4106   YY=    88.6878   ZY=    70.5993
   XZ=    54.4392   YZ=    65.8350   ZZ=   119.3136
   Eigenvalues:    29.2034   109.5356   224.2529
     30  C    Isotropic =   119.1323   Anisotropy =   155.7656
   XX=   136.1327   YX=    66.8122   ZX=    52.0794
   XY=    64.9006   YY=    66.6791   ZY=    30.1152
   XZ=    42.6806   YZ=    32.5537   ZZ=   154.5850
   Eigenvalues:    26.9020   107.5189   222.9760
     31  C    Isotropic =   134.3244   Anisotropy =   142.8917
   XX=   171.3570   YX=    22.4360   ZX=    53.2097
   XY=    21.2529   YY=   104.8437   ZY=    52.6081
   XZ=    53.3354   YZ=    66.1947   ZZ=   126.7724
   Eigenvalues:    52.2491   121.1385   229.5855
     32  C    Isotropic =   108.6817   Anisotropy =   128.0346
   XX=   126.3131   YX=    40.2750   ZX=    61.9398
   XY=    30.4435   YY=   105.9636   ZY=    17.5366
   XZ=    69.6755   YZ=    14.3196   ZZ=    93.7685
   Eigenvalues:    40.6920    91.3151   194.0381
     33  C    Isotropic =   119.3337   Anisotropy =   137.9164
   XX=   144.5423   YX=    36.4528   ZX=    55.5878
   XY=    47.2138   YY=    69.2475   ZY=    27.4299
   XZ=    45.5501   YZ=    24.5705   ZZ=   144.2115
   Eigenvalues:    50.4607    96.2625   211.2780
     34  N    Isotropic =   274.2814   Anisotropy =    80.3475
   XX=   264.0575   YX=   -12.1529   ZX=   -34.1515
   XY=   -18.7697   YY=   281.5955   ZY=    40.3936
   XZ=   -18.5127   YZ=    29.0852   ZZ=   277.1911
   Eigenvalues:   239.0966   255.9012   327.8463
     35  C    Isotropic =   195.5218   Anisotropy =    13.8232
   XX=   196.7843   YX=     0.7565   ZX=    -0.1044
   XY=     6.6630   YY=   194.9941   ZY=    -6.7198
   XZ=    -2.9469   YZ=    -9.4505   ZZ=   194.7871
   Eigenvalues:   186.5585   195.2697   204.7373
     36  C    Isotropic =   181.1562   Anisotropy =    44.0653
   XX=   161.6330   YX=     8.5363   ZX=    -7.1671
   XY=    -5.8474   YY=   207.0951   ZY=   -10.8091
   XZ=   -18.3322   YZ=    -9.5066   ZZ=   174.7406
   Eigenvalues:   153.5116   179.4240   210.5331
     37  C    Isotropic =   179.6993   Anisotropy =    45.4128
   XX=   174.2717   YX=    -4.1859   ZX=    15.0376
   XY=    -2.1765   YY=   171.4879   ZY=   -19.4047
   XZ=    20.6451   YZ=   -11.7640   ZZ=   193.3384
   Eigenvalues:   159.5299   169.5936   209.9745
     38  C    Isotropic =   213.6743   Anisotropy =    20.4493
   XX=   219.1105   YX=     3.4885   ZX=    11.1593
   XY=     9.4063   YY=   211.7368   ZY=     1.6818
   XZ=     6.4567   YZ=     2.4048   ZZ=   210.1756
   Eigenvalues:   204.2679   209.4480   227.3072
     39  C    Isotropic =   212.6229   Anisotropy =    20.4252
   XX=   214.3038   YX=    -2.5337   ZX=     8.4995
   XY=    -4.5314   YY=   209.9160   ZY=    -8.5735
   XZ=     8.5674   YZ=    -6.2906   ZZ=   213.6489
   Eigenvalues:   203.1549   208.4742   226.2397
     40  C    Isotropic =   211.9628   Anisotropy =     8.9772
   XX=   211.8723   YX=     4.2595   ZX=     0.0445
   XY=     2.4326   YY=   215.9237   ZY=     1.1547
   XZ=    -1.2089   YZ=     2.1496   ZZ=   208.0922
   Eigenvalues:   207.3149   210.6259   217.9475
     41  N    Isotropic =   234.6430   Anisotropy =    24.2867
   XX=   238.4897   YX=     2.9657   ZX=    -7.1435
   XY=   -12.0553   YY=   218.0559   ZY=     7.5005
   XZ=    -5.8927   YZ=   -13.3621   ZZ=   247.3834
   Eigenvalues:   216.4857   236.6092   250.8341
     42  C    Isotropic =   194.8892   Anisotropy =    48.3150
   XX=   179.9574   YX=     0.3266   ZX=   -10.0485
   XY=     6.4363   YY=   225.3668   ZY=    -3.2987
   XZ=    -6.7465   YZ=   -12.1005   ZZ=   179.3434
   Eigenvalues:   171.0461   186.5223   227.0993
     43  C    Isotropic =   222.8821   Anisotropy =    10.0357
   XX=   216.7371   YX=    -1.7570   ZX=     1.3016
   XY=    -2.9219   YY=   223.0044   ZY=    -1.7579
   XZ=     2.1294   YZ=    -0.8986   ZZ=   228.9049
   Eigenvalues:   215.8446   223.2292   229.5726
     44  C    Isotropic =   215.6881   Anisotropy =    17.8415
   XX=   211.8692   YX=     0.8515   ZX=    -0.8197
   XY=     3.5116   YY=   223.6025   ZY=    -9.9334
   XZ=     0.2487   YZ=    -5.3205   ZZ=   211.5927
   Eigenvalues:   207.7656   211.7163   227.5824
     45  C    Isotropic =   211.2243   Anisotropy =    37.5091
   XX=   212.6893   YX=    -9.8052   ZX=    23.4475
   XY=    -3.0134   YY=   211.2263   ZY=    -5.8455
   XZ=    20.4264   YZ=    -5.8967   ZZ=   209.7574
   Eigenvalues:   189.2371   208.2056   236.2304
     46  C    Isotropic =   191.6339   Anisotropy =    53.6731
   XX=   215.4710   YX=    20.2802   ZX=    15.0128
   XY=    24.5958   YY=   183.9554   ZY=   -16.5691
   XZ=     7.3093   YZ=   -10.6022   ZZ=   175.4753
   Eigenvalues:   156.5246   190.9611   227.4160
     47  C    Isotropic =   212.4457   Anisotropy =    22.8992
   XX=   220.3123   YX=     6.9877   ZX=    -8.8076
   XY=     7.2054   YY=   215.4507   ZY=    -1.6297
   XZ=    -8.9103   YZ=     0.2126   ZZ=   201.5742
   Eigenvalues:   197.8052   211.8202   227.7119
     48  C    Isotropic =   209.4041   Anisotropy =    11.4625
   XX=   217.0215   YX=     4.3973   ZX=    -1.8069
   XY=    -3.6053   YY=   209.1267   ZY=     4.7829
   XZ=     0.8073   YZ=     6.3610   ZZ=   202.0641
   Eigenvalues:   198.9768   212.1898   217.0458
     49  C    Isotropic =    95.9681   Anisotropy =    99.0456
   XX=    61.8530   YX=   -82.8150   ZX=    22.5237
   XY=   -97.6299   YY=    80.6688   ZY=    20.5505
   XZ=    35.8156   YZ=    30.7722   ZZ=   145.3826
   Eigenvalues:   -28.1476   154.0535   161.9985
     50  O    Isotropic =  -133.5850   Anisotropy =   886.1166
   XX=  -270.1801   YX=   -83.5472   ZX=  -290.1806
   XY=   -93.2225   YY=   -73.8177   ZY=   428.1814
   XZ=  -264.7522   YZ=   425.8877   ZZ=   -56.7574
   Eigenvalues:  -568.5647  -289.3498   457.1593
     51  O    Isotropic =   283.4392   Anisotropy =   138.7780
   XX=   158.6847   YX=   -71.8804   ZX=   -53.0187
   XY=    44.5861   YY=   367.5020   ZY=    12.2954
   XZ=  -131.2462   YZ=   -43.5620   ZZ=   324.1308
   Eigenvalues:   116.1745   358.1852   375.9578
     52  C    Isotropic =   197.1714   Anisotropy =    58.2880
   XX=   226.0802   YX=    20.4964   ZX=     7.2932
   XY=    20.7826   YY=   186.1590   ZY=     4.0509
   XZ=     7.4696   YZ=     3.3742   ZZ=   179.2751
   Eigenvalues:   177.1143   178.3698   236.0301
     53  C    Isotropic =   209.8226   Anisotropy =    41.0024
   XX=   200.1846   YX=     0.4104   ZX=    -2.3846
   XY=     2.9736   YY=   201.8572   ZY=   -18.5803
   XZ=    -2.4378   YZ=   -17.9267   ZZ=   227.4261
   Eigenvalues:   192.3368   199.9736   237.1575
     54  O    Isotropic =     0.6340   Anisotropy =   520.7588
   XX=    -1.3545   YX=   -87.9339   ZX=  -203.6928
   XY=  -102.7308   YY=  -124.7070   ZY=   168.7153
   XZ=  -201.1324   YZ=   148.6123   ZZ=   127.9635
   Eigenvalues:  -201.2420  -144.6624   347.8066
     55  H    Isotropic =    25.9150   Anisotropy =    15.9882
   XX=    32.4859   YX=     4.7188   ZX=     1.8967
   XY=     4.6945   YY=    26.6592   ZY=     3.7551
   XZ=     4.7883   YZ=     5.1028   ZZ=    18.6000
   Eigenvalues:    16.5417    24.6296    36.5738
     56  H    Isotropic =    25.6822   Anisotropy =     6.5829
   XX=    28.9934   YX=    -2.1941   ZX=     1.2781
   XY=    -1.4902   YY=    26.8083   ZY=     1.7626
   XZ=     1.7718   YZ=     1.7150   ZZ=    21.2450
   Eigenvalues:    20.2852    26.6907    30.0708
     57  H    Isotropic =    26.5831   Anisotropy =     7.9172
   XX=    27.8870   YX=     0.6581   ZX=     2.2389
   XY=     0.4118   YY=    30.6161   ZY=     2.8702
   XZ=     2.6728   YZ=     3.0024   ZZ=    21.2460
   Eigenvalues:    19.7883    28.0997    31.8612
     58  H    Isotropic =    31.3770   Anisotropy =     8.6247
   XX=    32.6496   YX=     1.0342   ZX=     3.0246
   XY=     0.5982   YY=    28.6497   ZY=     2.2968
   XZ=     5.1532   YZ=     0.5351   ZZ=    32.8317
   Eigenvalues:    28.0760    28.9282    37.1268
     59  H    Isotropic =    32.1702   Anisotropy =    14.1581
   XX=    37.8541   YX=    -3.5228   ZX=    -5.7767
   XY=    -2.9472   YY=    30.2591   ZY=    -0.6412
   XZ=    -7.0297   YZ=    -1.5326   ZZ=    28.3973
   Eigenvalues:    24.1451    30.7565    41.6089
     60  H    Isotropic =    32.8514   Anisotropy =     8.5039
   XX=    28.6186   YX=     2.5897   ZX=     1.2197
   XY=     2.0861   YY=    33.2868   ZY=     4.1953
   XZ=    -1.2717   YZ=     1.7376   ZZ=    36.6488
   Eigenvalues:    27.4822    32.5513    38.5207
     61  H    Isotropic =    32.3458   Anisotropy =    15.5321
   XX=    36.1746   YX=     4.9211   ZX=    -6.1091
   XY=     4.6634   YY=    31.8970   ZY=    -3.1622
   XZ=    -6.0366   YZ=    -3.2657   ZZ=    28.9657
   Eigenvalues:    25.4647    28.8721    42.7005
     62  H    Isotropic =    32.4953   Anisotropy =    12.9925
   XX=    28.2476   YX=    -1.3116   ZX=     1.9549
   XY=    -1.5678   YY=    29.1506   ZY=    -2.2923
   XZ=     1.7688   YZ=    -3.4520   ZZ=    40.0877
   Eigenvalues:    27.1859    29.1431    41.1570
     63  H    Isotropic =    31.7278   Anisotropy =    15.0112
   XX=    37.9524   YX=    -1.5565   ZX=     5.8949
   XY=    -2.7002   YY=    28.8336   ZY=    -3.6017
   XZ=     6.2372   YZ=    -2.5733   ZZ=    28.3974
   Eigenvalues:    24.5206    28.9275    41.7352
     64  H    Isotropic =    31.9212   Anisotropy =    14.3545
   XX=    37.3249   YX=    -2.3838   ZX=    -5.8665
   XY=    -3.2285   YY=    30.4183   ZY=     2.5140
   XZ=    -6.1162   YZ=     2.7665   ZZ=    28.0202
   Eigenvalues:    24.8133    29.4593    41.4908
     65  H    Isotropic =    32.6360   Anisotropy =    16.9560
   XX=    29.7576   YX=    -3.8419   ZX=    -0.9098
   XY=    -3.5317   YY=    42.9416   ZY=    -0.9246
   XZ=    -0.6838   YZ=    -1.2191   ZZ=    25.2089
   Eigenvalues:    24.8942    29.0738    43.9400
     66  H    Isotropic =    32.5484   Anisotropy =    10.6368
   XX=    30.2817   YX=     0.8273   ZX=     3.6061
   XY=     0.5432   YY=    31.8152   ZY=     4.1373
   XZ=     3.6485   YZ=     4.4696   ZZ=    35.5481
   Eigenvalues:    27.6724    30.3332    39.6395
     67  H    Isotropic =    32.5531   Anisotropy =    12.4393
   XX=    29.1975   YX=    -2.4789   ZX=     2.0654
   XY=    -2.6403   YY=    31.3165   ZY=    -4.9530
   XZ=     2.1036   YZ=    -5.0561   ZZ=    37.1452
   Eigenvalues:    27.2658    29.5474    40.8459
     68  H    Isotropic =    32.4654   Anisotropy =    15.1892
   XX=    34.2879   YX=     6.1650   ZX=    -2.5567
   XY=     5.7459   YY=    37.5052   ZY=    -2.1892
   XZ=    -2.0506   YZ=    -1.8069   ZZ=    25.6031
   Eigenvalues:    25.0005    29.8042    42.5915
     69  H    Isotropic =    33.1370   Anisotropy =    11.3142
   XX=    34.8625   YX=    -2.9365   ZX=     3.4077
   XY=    -1.4924   YY=    28.3984   ZY=    -4.2521
   XZ=     3.8273   YZ=    -3.2077   ZZ=    36.1500
   Eigenvalues:    26.8186    31.9125    40.6797
     70  H    Isotropic =    32.9042   Anisotropy =    13.0071
   XX=    36.6419   YX=     5.0271   ZX=    -3.5576
   XY=     7.0381   YY=    33.2235   ZY=    -0.8676
   XZ=    -2.9774   YZ=     2.4368   ZZ=    28.8472
   Eigenvalues:    26.0081    31.1289    41.5756
     71  H    Isotropic =    32.1557   Anisotropy =    14.8998
   XX=    37.1213   YX=    -0.7327   ZX=    -6.0365
   XY=     0.2648   YY=    26.4766   ZY=    -0.5253
   XZ=    -7.4969   YZ=     0.2794   ZZ=    32.8692
   Eigenvalues:    26.4373    27.9410    42.0889
     72  H    Isotropic =    32.0324   Anisotropy =     9.1969
   XX=    31.7402   YX=     1.0978   ZX=     2.7046
   XY=     1.9412   YY=    29.5223   ZY=     2.9759
   XZ=     2.8685   YZ=     4.0862   ZZ=    34.8348
   Eigenvalues:    27.7553    30.1783    38.1637
     73  H    Isotropic =    32.2286   Anisotropy =    15.0967
   XX=    36.6277   YX=     6.8011   ZX=     1.5983
   XY=     6.0751   YY=    34.7923   ZY=    -0.6089
   XZ=     2.0650   YZ=    -0.0706   ZZ=    25.2658
   Eigenvalues:    24.7161    29.6766    42.2931
     74  H    Isotropic =    31.4250   Anisotropy =     8.8055
   XX=    29.6608   YX=    -1.6334   ZX=     0.0262
   XY=    -2.4698   YY=    29.7923   ZY=     3.5497
   XZ=     0.0834   YZ=     4.7725   ZZ=    34.8219
   Eigenvalues:    26.4067    30.5729    37.2953
     75  H    Isotropic =    31.2128   Anisotropy =    13.0887
   XX=    39.9114   YX=    -1.1614   ZX=    -0.4415
   XY=     0.0170   YY=    27.6749   ZY=    -1.5765
   XZ=     0.1863   YZ=    -0.3894   ZZ=    26.0521
   Eigenvalues:    25.5798    28.1199    39.9386
     76  H    Isotropic =    30.6026   Anisotropy =    11.7159
   XX=    29.2394   YX=     0.9376   ZX=     5.1106
   XY=     1.6855   YY=    28.6253   ZY=     2.7578
   XZ=     5.7816   YZ=     2.5769   ZZ=    33.9433
   Eigenvalues:    25.5997    27.7950    38.4132
     77  H    Isotropic =    30.7002   Anisotropy =     7.4476
   XX=    31.8799   YX=     2.0837   ZX=    -1.8640
   XY=     1.2716   YY=    27.9243   ZY=    -3.8337
   XZ=    -0.9938   YZ=    -3.7989   ZZ=    32.2966
   Eigenvalues:    25.6188    30.8166    35.6653
     78  H    Isotropic =    30.5614   Anisotropy =    12.2617
   XX=    30.3179   YX=    -5.7093   ZX=     2.5340
   XY=    -5.8611   YY=    32.4168   ZY=    -2.2070
   XZ=     3.4239   YZ=    -2.7455   ZZ=    28.9494
   Eigenvalues:    25.2878    27.6605    38.7359
     79  H    Isotropic =    31.8846   Anisotropy =    11.9904
   XX=    31.5450   YX=    -3.6268   ZX=    -3.7812
   XY=    -3.0121   YY=    29.7443   ZY=     3.2402
   XZ=    -5.6090   YZ=     3.0742   ZZ=    34.3646
   Eigenvalues:    27.1596    28.6161    39.8782
     80  H    Isotropic =    30.7311   Anisotropy =    14.6311
   XX=    29.7185   YX=    -5.2543   ZX=     2.3647
   XY=    -5.0486   YY=    37.4559   ZY=    -1.9179
   XZ=     1.7498   YZ=    -1.9478   ZZ=    25.0190
   Eigenvalues:    24.2457    27.4625    40.4852
     81  H    Isotropic =    30.9234   Anisotropy =    11.0315
   XX=    37.7542   YX=    -0.6831   ZX=     3.0721
   XY=    -0.9271   YY=    29.1148   ZY=     2.5651
   XZ=     1.9752   YZ=     2.6068   ZZ=    25.9012
   Eigenvalues:    23.9726    30.5198    38.2777
     82  H    Isotropic =    29.8296   Anisotropy =    12.7740
   XX=    27.8127   YX=    -0.3908   ZX=    -0.1766
   XY=    -1.4388   YY=    35.9606   ZY=     5.1131
   XZ=    -1.7364   YZ=     5.4759   ZZ=    25.7153
   Eigenvalues:    23.4073    27.7359    38.3455
     83  H    Isotropic =    29.8795   Anisotropy =     8.1851
   XX=    27.0129   YX=    -1.8187   ZX=     0.3115
   XY=    -2.8341   YY=    28.2520   ZY=    -1.6985
   XZ=     2.2839   YZ=    -1.9995   ZZ=    34.3737
   Eigenvalues:    25.2238    29.0786    35.3362
     84  H    Isotropic =    24.3664   Anisotropy =    13.0043
   XX=    27.1335   YX=    -5.8980   ZX=    -2.8477
   XY=    -5.4169   YY=    24.8990   ZY=     2.5998
   XZ=    -3.2840   YZ=     2.1374   ZZ=    21.0667
   Eigenvalues:    19.7872    20.2761    33.0359
     85  H    Isotropic =    25.9357   Anisotropy =     6.8647
   XX=    25.9481   YX=     0.5812   ZX=    -3.8221
   XY=     0.3835   YY=    27.6600   ZY=    -1.2911
   XZ=    -5.2296   YZ=    -2.2745   ZZ=    24.1988
   Eigenvalues:    20.3035    26.9913    30.5121
     86  H    Isotropic =    26.7095   Anisotropy =     7.7747
   XX=    25.4855   YX=    -2.6892   ZX=    -4.0898
   XY=    -2.4498   YY=    30.5819   ZY=    -0.7763
   XZ=    -4.3934   YZ=    -0.2526   ZZ=    24.0611
   Eigenvalues:    20.0605    28.1754    31.8926
     87  H    Isotropic =    30.2789   Anisotropy =    11.8143
   XX=    37.9545   YX=     0.1684   ZX=    -2.5152
   XY=    -1.4490   YY=    27.1539   ZY=     0.0042
   XZ=    -0.2894   YZ=     0.7392   ZZ=    25.7283
   Eigenvalues:    25.5144    27.1672    38.1551
     88  H    Isotropic =    32.2047   Anisotropy =    12.2548
   XX=    27.1816   YX=     2.6955   ZX=     2.6171
   XY=     1.7776   YY=    29.9069   ZY=    -2.7460
   XZ=     0.8020   YZ=    -2.8654   ZZ=    39.5256
   Eigenvalues:    25.3287    30.9109    40.3745
     89  H    Isotropic =    32.9020   Anisotropy =    10.6171
   XX=    39.1865   YX=    -1.5072   ZX=     2.6989
   XY=    -3.3504   YY=    32.4436   ZY=     1.0326
   XZ=    -0.7877   YZ=     2.6151   ZZ=    27.0759
   Eigenvalues:    26.2990    32.4270    39.9801
     90  H    Isotropic =    32.1160   Anisotropy =    19.5400
   XX=    44.4803   YX=     3.9850   ZX=     0.5846
   XY=     2.8940   YY=    27.2522   ZY=    -1.0325
   XZ=    -0.0810   YZ=    -0.0030   ZZ=    24.6156
   Eigenvalues:    24.4688    26.7365    45.1427
     91  H    Isotropic =    32.2775   Anisotropy =    13.3690
   XX=    28.1230   YX=     1.1597   ZX=     1.9004
   XY=     1.1431   YY=    30.9871   ZY=     5.2733
   XZ=     1.6479   YZ=     5.8326   ZZ=    37.7225
   Eigenvalues:    27.6843    27.9581    41.1902
     92  H    Isotropic =    30.5874   Anisotropy =    12.3476
   XX=    33.6725   YX=     2.9388   ZX=    -4.8059
   XY=     4.2304   YY=    29.2032   ZY=    -3.7971
   XZ=    -4.7423   YZ=    -2.0722   ZZ=    28.8865
   Eigenvalues:    25.6995    27.2437    38.8191
     93  H    Isotropic =    30.7654   Anisotropy =    14.2406
   XX=    26.2072   YX=    -1.7303   ZX=     5.0751
   XY=    -1.4183   YY=    30.5833   ZY=    -5.7361
   XZ=     4.1658   YZ=    -4.3143   ZZ=    35.5056
   Eigenvalues:    24.2517    27.7853    40.2591
     94  H    Isotropic =    32.2611   Anisotropy =    17.5673
   XX=    26.0994   YX=     0.4079   ZX=     0.5805
   XY=     0.0968   YY=    43.1659   ZY=    -3.5747
   XZ=     0.5912   YZ=    -3.7083   ZZ=    27.5179
   Eigenvalues:    25.7077    27.1029    43.9726
     95  H    Isotropic =    32.4770   Anisotropy =    11.5426
   XX=    38.7129   YX=    -3.7665   ZX=    -0.5395
   XY=    -3.3995   YY=    31.3727   ZY=    -1.6780
   XZ=    -0.7926   YZ=    -1.3642   ZZ=    27.3454
   Eigenvalues:    26.5307    30.7282    40.1721
     96  H    Isotropic =    32.2867   Anisotropy =    15.4207
   XX=    40.9514   YX=     4.5054   ZX=     0.7892
   XY=     4.3134   YY=    30.5139   ZY=    -1.5645
   XZ=     0.6418   YZ=    -1.1839   ZZ=    25.3947
   Eigenvalues:    24.8147    29.4782    42.5672
     97  H    Isotropic =    32.3760   Anisotropy =    13.6484
   XX=    26.8797   YX=    -1.0001   ZX=    -0.8955
   XY=    -0.5922   YY=    36.6700   ZY=     5.8353
   XZ=    -0.5077   YZ=     6.3257   ZZ=    33.5782
   Eigenvalues:    26.8008    28.8522    41.4749
     98  H    Isotropic =    31.4760   Anisotropy =    11.6943
   XX=    27.8252   YX=    -2.6821   ZX=     2.7266
   XY=    -0.6962   YY=    32.3217   ZY=     7.2571
   XZ=     2.8034   YZ=     4.3239   ZZ=    34.2810
   Eigenvalues:    24.5122    30.6436    39.2722
     99  H    Isotropic =    32.7545   Anisotropy =    11.9615
   XX=    38.5364   YX=     4.8110   ZX=    -1.1496
   XY=     4.9272   YY=    28.5834   ZY=    -0.0512
   XZ=    -1.1431   YZ=    -1.7752   ZZ=    31.1436
   Eigenvalues:    26.5593    30.9754    40.7288
    100  H    Isotropic =    31.3693   Anisotropy =     8.7416
   XX=    36.2758   YX=    -3.1251   ZX=     0.2469
   XY=    -2.2538   YY=    29.3425   ZY=     0.5641
   XZ=    -0.0409   YZ=    -0.2597   ZZ=    28.4895
   Eigenvalues:    28.2749    28.6359    37.1970
    101  H    Isotropic =    30.8682   Anisotropy =    15.5351
   XX=    29.8225   YX=     0.6143   ZX=     8.7519
   XY=     0.2508   YY=    26.4745   ZY=    -0.8167
   XZ=     6.1043   YZ=    -1.8952   ZZ=    36.3077
   Eigenvalues:    24.3676    27.0121    41.2249
    102  H    Isotropic =    31.5398   Anisotropy =    10.2961
   XX=    35.8640   YX=    -3.7889   ZX=     2.1028
   XY=    -2.4121   YY=    30.0213   ZY=    -3.9212
   XZ=     1.9411   YZ=    -3.3178   ZZ=    28.7341
   Eigenvalues:    25.6781    30.5374    38.4039
    103  H    Isotropic =    32.1483   Anisotropy =    14.2113
   XX=    28.5115   YX=    -1.9941   ZX=    -5.0281
   XY=    -1.3874   YY=    34.2048   ZY=     5.6805
   XZ=    -4.8122   YZ=     6.2475   ZZ=    33.7285
   Eigenvalues:    25.1107    29.7117    41.6225
    104  H    Isotropic =    31.1343   Anisotropy =    12.1899
   XX=    28.1435   YX=     0.9537   ZX=    -4.0883
   XY=     1.6198   YY=    27.5292   ZY=     0.0723
   XZ=    -3.8846   YZ=    -1.3155   ZZ=    37.7301
   Eigenvalues:    26.0097    28.1323    39.2609
    105  H    Isotropic =    30.4814   Anisotropy =    12.2370
   XX=    30.9373   YX=     4.4578   ZX=    -2.7969
   XY=     4.0659   YY=    32.5727   ZY=    -4.9012
   XZ=    -2.1212   YZ=    -4.5082   ZZ=    27.9343
   Eigenvalues:    25.0009    27.8039    38.6394
    106  H    Isotropic =    30.5808   Anisotropy =     8.0518
   XX=    31.4130   YX=     3.0788   ZX=     1.3829
   XY=     3.4457   YY=    28.1453   ZY=     2.5080
   XZ=     1.9984   YZ=     3.3315   ZZ=    32.1840
   Eigenvalues:    25.6580    30.1357    35.9486
    107  H    Isotropic =    30.5335   Anisotropy =    11.7809
   XX=    37.0679   YX=    -2.4972   ZX=    -2.8539
   XY=    -2.8765   YY=    28.5537   ZY=     0.6265
   XZ=    -2.3535   YZ=     0.0358   ZZ=    25.9791
   Eigenvalues:    25.3717    27.8414    38.3875
    108  H    Isotropic =    30.9435   Anisotropy =    10.8648
   XX=    29.7042   YX=    -2.0506   ZX=    -4.9969
   XY=    -1.8770   YY=    28.8909   ZY=    -2.0063
   XZ=    -6.5378   YZ=    -1.6969   ZZ=    34.2352
   Eigenvalues:    24.2411    30.4026    38.1867
    109  H    Isotropic =    30.7491   Anisotropy =    14.8676
   XX=    27.4281   YX=     3.4363   ZX=    -2.4879
   XY=     3.4460   YY=    37.7501   ZY=    -4.3013
   XZ=    -3.5273   YZ=    -4.3368   ZZ=    27.0692
   Eigenvalues:    24.1649    27.4216    40.6609
    110  H    Isotropic =    31.9691   Anisotropy =    10.4873
   XX=    32.5720   YX=    -1.2531   ZX=     5.2133
   XY=    -1.4839   YY=    29.5458   ZY=    -3.7491
   XZ=     2.8539   YZ=    -4.3082   ZZ=    33.7896
   Eigenvalues:    26.8963    30.0504    38.9606
 End of Minotr F.D. properties file   721 does not exist.
 End of Minotr F.D. properties file   722 does not exist.
 End of Minotr F.D. properties file   788 does not exist.
 Hyperfine terms turned off by default for NAtoms > 100.

 **********************************************************************

            Population analysis using the SCF Density.

 **********************************************************************

 Orbital symmetries:
       Occupied  (A) (A) (A) (A) (A) (A) (A) (A) (A) (A) (A) (A)
                 (A) (A) (A) (A) (A) (A) (A) (A) (A) (A) (A) (A)
                 (A) (A) (A) (A) (A) (A) (A) (A) (A) (A) (A) (A)
                 (A) (A) (A) (A) (A) (A) (A) (A) (A) (A) (A) (A)
                 (A) (A) (A) (A) (A) (A) (A) (A) (A) (A) (A) (A)
                 (A) (A) (A) (A) (A) (A) (A) (A) (A) (A) (A) (A)
                 (A) (A) (A) (A) (A) (A) (A) (A) (A) (A) (A) (A)
                 (A) (A) (A) (A) (A) (A) (A) (A) (A) (A) (A) (A)
                 (A) (A) (A) (A) (A) (A) (A) (A) (A) (A) (A) (A)
                 (A) (A) (A) (A) (A) (A) (A) (A) (A) (A) (A) (A)
                 (A) (A) (A) (A) (A) (A) (A) (A) (A) (A) (A) (A)
                 (A) (A) (A) (A) (A) (A) (A) (A) (A) (A) (A) (A)
                 (A) (A) (A) (A) (A) (A) (A) (A) (A) (A) (A) (A)
                 (A) (A) (A) (A) (A) (A) (A) (A) (A) (A) (A) (A)
                 (A) (A) (A) (A) (A) (A) (A) (A) (A) (A) (A) (A)
                 (A) (A) (A) (A) (A) (A) (A) (A) (A) (A) (A) (A)
                 (A) (A) (A) (A) (A)
       Virtual   (A) (A) (A) (A) (A) (A) (A) (A) (A) (A) (A) (A)
                 (A) (A) (A) (A) (A) (A) (A) (A) (A) (A) (A) (A)
                 (A) (A) (A) (A) (A) (A) (A) (A) (A) (A) (A) (A)
                 (A) (A) (A) (A) (A) (A) (A) (A) (A) (A) (A) (A)
                 (A) (A) (A) (A) (A) (A) (A) (A) (A) (A) (A) (A)
                 (A) (A) (A) (A) (A) (A) (A) (A) (A) (A) (A) (A)
                 (A) (A) (A) (A) (A) (A) (A) (A) (A) (A) (A) (A)
                 (A) (A) (A) (A) (A) (A) (A) (A) (A) (A) (A) (A)
                 (A) (A) (A) (A) (A) (A) (A) (A) (A) (A) (A) (A)
                 (A) (A) (A) (A) (A) (A) (A) (A) (A) (A) (A) (A)
                 (A) (A) (A) (A) (A) (A) (A) (A) (A)
 The electronic state is 1-A.
 Alpha  occ. eigenvalues --  -20.31060 -20.30435 -20.24911 -20.24375 -19.91354
 Alpha  occ. eigenvalues --  -15.47436 -15.33471 -15.33093 -15.30408 -11.16949
 Alpha  occ. eigenvalues --  -11.16312 -11.10797 -11.10394 -11.09771 -11.09055
 Alpha  occ. eigenvalues --  -11.09026 -11.08668 -11.08433 -11.07845 -11.07567
 Alpha  occ. eigenvalues --  -11.06921 -11.06879 -11.06876 -11.06774 -11.06524
 Alpha  occ. eigenvalues --  -11.06147 -11.06045 -11.05901 -11.05444 -11.05318
 Alpha  occ. eigenvalues --  -11.05280 -11.05092 -11.05061 -11.04942 -11.04692
 Alpha  occ. eigenvalues --  -11.04488 -11.04170 -11.04139 -11.04012 -11.03894
 Alpha  occ. eigenvalues --  -11.03642 -11.03560 -11.03452 -11.03451 -11.01395
 Alpha  occ. eigenvalues --  -11.01117 -11.01078 -11.01062 -11.00968 -11.00885
 Alpha  occ. eigenvalues --  -11.00851 -11.00710 -11.00701 -11.00654  -1.38235
 Alpha  occ. eigenvalues --   -1.37648  -1.28094  -1.27830  -1.27451  -1.21040
 Alpha  occ. eigenvalues --   -1.20904  -1.18614  -1.11563  -1.09326  -1.08154
 Alpha  occ. eigenvalues --   -1.06891  -1.06038  -1.04666  -1.03031  -1.00482
 Alpha  occ. eigenvalues --   -1.00148  -0.98675  -0.98242  -0.97498  -0.96575
 Alpha  occ. eigenvalues --   -0.96260  -0.94311  -0.94224  -0.93246  -0.92023
 Alpha  occ. eigenvalues --   -0.91671  -0.91427  -0.91122  -0.89226  -0.87812
 Alpha  occ. eigenvalues --   -0.86240  -0.84653  -0.82626  -0.82486  -0.81673
 Alpha  occ. eigenvalues --   -0.80409  -0.79328  -0.78532  -0.77747  -0.77387
 Alpha  occ. eigenvalues --   -0.76938  -0.74135  -0.73692  -0.72107  -0.71819
 Alpha  occ. eigenvalues --   -0.70833  -0.70099  -0.69676  -0.69175  -0.66621
 Alpha  occ. eigenvalues --   -0.65682  -0.65536  -0.64637  -0.63663  -0.63169
 Alpha  occ. eigenvalues --   -0.62579  -0.61881  -0.61562  -0.61428  -0.60994
 Alpha  occ. eigenvalues --   -0.60698  -0.60369  -0.59454  -0.59424  -0.58653
 Alpha  occ. eigenvalues --   -0.58356  -0.58058  -0.57887  -0.57503  -0.57160
 Alpha  occ. eigenvalues --   -0.57031  -0.56529  -0.56215  -0.55975  -0.55436
 Alpha  occ. eigenvalues --   -0.54954  -0.54794  -0.54402  -0.54329  -0.54047
 Alpha  occ. eigenvalues --   -0.53611  -0.53377  -0.52937  -0.52454  -0.51878
 Alpha  occ. eigenvalues --   -0.51821  -0.51500  -0.51035  -0.50624  -0.50257
 Alpha  occ. eigenvalues --   -0.49900  -0.49573  -0.49482  -0.49056  -0.48610
 Alpha  occ. eigenvalues --   -0.48191  -0.48016  -0.47658  -0.47527  -0.47140
 Alpha  occ. eigenvalues --   -0.46590  -0.46161  -0.45823  -0.45589  -0.45502
 Alpha  occ. eigenvalues --   -0.45230  -0.44869  -0.44621  -0.44460  -0.44198
 Alpha  occ. eigenvalues --   -0.43837  -0.43306  -0.43250  -0.42758  -0.42392
 Alpha  occ. eigenvalues --   -0.42214  -0.42041  -0.41727  -0.41090  -0.40823
 Alpha  occ. eigenvalues --   -0.40571  -0.40065  -0.39216  -0.38483  -0.38148
 Alpha  occ. eigenvalues --   -0.37196  -0.37040  -0.36157  -0.35128  -0.34329
 Alpha  occ. eigenvalues --   -0.33852  -0.33586  -0.33135  -0.32024  -0.31649
 Alpha  occ. eigenvalues --   -0.26711  -0.26149  -0.25744  -0.20880  -0.20003
 Alpha  occ. eigenvalues --   -0.15249  -0.15071
 Alpha virt. eigenvalues --    0.27512   0.27877   0.28172   0.29834   0.30108
 Alpha virt. eigenvalues --    0.30659   0.47030   0.47696   0.48629   0.49081
 Alpha virt. eigenvalues --    0.49972   0.50588   0.50817   0.51108   0.52540
 Alpha virt. eigenvalues --    0.53120   0.54367   0.54753   0.55716   0.56022
 Alpha virt. eigenvalues --    0.57061   0.57428   0.58098   0.58652   0.58926
 Alpha virt. eigenvalues --    0.59425   0.59936   0.60157   0.60832   0.61218
 Alpha virt. eigenvalues --    0.61532   0.61810   0.62264   0.62744   0.63193
 Alpha virt. eigenvalues --    0.63424   0.63565   0.63855   0.64217   0.64492
 Alpha virt. eigenvalues --    0.64646   0.64950   0.65031   0.65127   0.65425
 Alpha virt. eigenvalues --    0.65574   0.65994   0.66138   0.66977   0.67050
 Alpha virt. eigenvalues --    0.67295   0.67714   0.67866   0.68198   0.68617
 Alpha virt. eigenvalues --    0.68812   0.69318   0.69461   0.69526   0.69757
 Alpha virt. eigenvalues --    0.70142   0.70355   0.70767   0.70917   0.71052
 Alpha virt. eigenvalues --    0.71372   0.71497   0.71724   0.72126   0.72722
 Alpha virt. eigenvalues --    0.72853   0.73483   0.73695   0.74038   0.74208
 Alpha virt. eigenvalues --    0.74376   0.74549   0.74772   0.74949   0.75277
 Alpha virt. eigenvalues --    0.75565   0.75692   0.75817   0.76271   0.76651
 Alpha virt. eigenvalues --    0.76937   0.77146   0.77292   0.77471   0.77631
 Alpha virt. eigenvalues --    0.78082   0.78282   0.78374   0.78860   0.79327
 Alpha virt. eigenvalues --    0.79610   0.79793   0.80348   0.80462   0.80668
 Alpha virt. eigenvalues --    0.81292   0.81573   0.81753   0.81880   0.82603
 Alpha virt. eigenvalues --    0.82829   0.83718   0.84113   0.84552   0.84696
 Alpha virt. eigenvalues --    0.85397   0.86635   0.86762   0.87038   0.87918
 Alpha virt. eigenvalues --    0.88868   0.89858   0.91636   0.92448   0.94897
 Alpha virt. eigenvalues --    0.95010   0.95961   0.98596   1.01009   1.01613
 Alpha virt. eigenvalues --    1.11619   1.12365   1.16643   1.16950
          Condensed to atoms (all electrons):
 Mulliken charges:
               1
     1  C   -0.074088
     2  C    0.001488
     3  C   -0.062787
     4  C   -0.090575
     5  C    0.087644
     6  C   -0.013589
     7  N   -0.286767
     8  C    0.018002
     9  C    0.127985
    10  C    0.040479
    11  C   -0.114890
    12  C   -0.105589
    13  C    0.028029
    14  N   -0.292368
    15  C   -0.014902
    16  C   -0.107966
    17  C   -0.102017
    18  C   -0.104862
    19  C   -0.019695
    20  C   -0.110531
    21  C   -0.066468
    22  C    0.319787
    23  O   -0.278013
    24  O   -0.255098
    25  C   -0.055673
    26  C   -0.078901
    27  C   -0.109689
    28  C   -0.000224
    29  C   -0.072271
    30  C   -0.061167
    31  C   -0.091621
    32  C    0.087648
    33  C   -0.013997
    34  N   -0.287019
    35  C    0.020941
    36  C    0.128212
    37  C    0.040275
    38  C   -0.115832
    39  C   -0.106405
    40  C    0.028414
    41  N   -0.085721
    42  C   -0.007519
    43  C   -0.110748
    44  C   -0.102379
    45  C   -0.106428
    46  C   -0.012080
    47  C   -0.111567
    48  C   -0.067182
    49  C    0.320353
    50  O   -0.279158
    51  O   -0.254154
    52  C   -0.055637
    53  C   -0.079494
    54  O   -0.454266
    55  H    0.069532
    56  H    0.054884
    57  H    0.056709
    58  H    0.059590
    59  H    0.050294
    60  H    0.055868
    61  H    0.047813
    62  H    0.051722
    63  H    0.053861
    64  H    0.057910
    65  H    0.052954
    66  H    0.050382
    67  H    0.051294
    68  H    0.051205
    69  H    0.063077
    70  H    0.063389
    71  H    0.053842
    72  H    0.051549
    73  H    0.050874
    74  H    0.066995
    75  H    0.064725
    76  H    0.071855
    77  H    0.074488
    78  H    0.077158
    79  H    0.055382
    80  H    0.071445
    81  H    0.075338
    82  H    0.056284
    83  H    0.063645
    84  H    0.090648
    85  H    0.056280
    86  H    0.056791
    87  H    0.090006
    88  H    0.051748
    89  H    0.060026
    90  H    0.060181
    91  H    0.049692
    92  H    0.088562
    93  H    0.079950
    94  H    0.064629
    95  H    0.056788
    96  H    0.057985
    97  H    0.056258
    98  H    0.082418
    99  H    0.070624
   100  H    0.067474
   101  H    0.088416
   102  H    0.065451
   103  H    0.054347
   104  H    0.066805
   105  H    0.078626
   106  H    0.075672
   107  H    0.072728
   108  H    0.074913
   109  H    0.072758
   110  H    0.056231
 Sum of Mulliken charges =  -0.00000
 Mulliken charges with hydrogens summed into heavy atoms:
               1
     1  C   -0.004556
     2  C    0.001488
     3  C   -0.007903
     4  C   -0.033866
     5  C    0.087644
     6  C   -0.013589
     7  N   -0.286767
     8  C    0.018002
     9  C    0.127985
    10  C    0.100069
    11  C   -0.008728
    12  C   -0.006054
    13  C    0.028029
    14  N   -0.292368
    15  C    0.096869
    16  C   -0.004629
    17  C    0.000483
    18  C    0.021604
    19  C    0.085696
    20  C    0.007338
    21  C   -0.001743
    22  C    0.319787
    23  O   -0.278013
    24  O   -0.255098
    25  C    0.167828
    26  C    0.123264
    27  C    0.010240
    28  C   -0.000224
    29  C    0.018377
    30  C   -0.004887
    31  C   -0.034830
    32  C    0.087648
    33  C   -0.013997
    34  N   -0.287019
    35  C    0.020941
    36  C    0.128212
    37  C    0.130281
    38  C   -0.004057
    39  C    0.003469
    40  C    0.028414
    41  N   -0.085721
    42  C    0.160993
    43  C    0.010669
    44  C    0.011864
    45  C    0.046614
    46  C    0.143810
    47  C    0.008232
    48  C   -0.000377
    49  C    0.320353
    50  O   -0.279158
    51  O   -0.254154
    52  C    0.171389
    53  C    0.124408
    54  O   -0.454266
 Electronic spatial extent (au):  <R**2>=          37048.2394
 Charge=             -0.0000 electrons
 Dipole moment (field-independent basis, Debye):
    X=              0.3986    Y=              1.9129    Z=              3.8157  Tot=              4.2869
 Quadrupole moment (field-independent basis, Debye-Ang):
   XX=           -271.8381   YY=           -288.7478   ZZ=           -309.7866
   XY=             -3.5082   XZ=            -15.2791   YZ=             -3.6872
 Traceless Quadrupole moment (field-independent basis, Debye-Ang):
   XX=             18.2860   YY=              1.3764   ZZ=            -19.6624
   XY=             -3.5082   XZ=            -15.2791   YZ=             -3.6872
 Octapole moment (field-independent basis, Debye-Ang**2):
  XXX=             19.6959  YYY=             22.2458  ZZZ=             82.1485  XYY=            -27.3715
  XXY=            -23.7683  XXZ=             64.6775  XZZ=              4.4080  YZZ=            -24.1421
  YYZ=              2.0875  XYZ=             -7.3382
 Hexadecapole moment (field-independent basis, Debye-Ang**3):
 XXXX=         -30677.4558 YYYY=          -8927.1992 ZZZZ=          -4991.7915 XXXY=            245.0429
 XXXZ=            -59.1053 YYYX=           -125.2462 YYYZ=            -97.5452 ZZZX=             55.4209
 ZZZY=            -79.2705 XXYY=          -6663.5651 XXZZ=          -5982.1296 YYZZ=          -2290.4348
 XXYZ=           -204.2171 YYXZ=             31.6200 ZZXY=            -91.9052
 N-N= 8.164077585279D+03 E-N=-2.170487413660D+04  KE= 2.279187345753D+03
 ******************************Gaussian NBO Version 3.1******************************
             N A T U R A L   A T O M I C   O R B I T A L   A N D
          N A T U R A L   B O N D   O R B I T A L   A N A L Y S I S
 ******************************Gaussian NBO Version 3.1******************************
       /RESON  / : Allow strongly delocalized NBO set
       /NLMO   / : Form Natural Localized Molecular Orbitals
       /NMR /    : Analyze NMR Sheilding Tensor 

 Analyzing the SCF density

 Job title: pleiokomenine_C_1a                                              

 Storage needed:    355564 in NPA,    438187 in NBO,   2133784 in NLMO ( 104796000 available)
 GSVD:  LWork=     -108884 too small for GESVD, short by      536270 words or      536270 for optimal perf.


 NATURAL POPULATIONS:  Natural atomic orbital occupancies 
                                                          
   NAO  Atom  No  lang   Type(AO)    Occupancy      Energy
 ----------------------------------------------------------
     1    C    1  S      Cor( 1S)     1.99993     -10.93469
     2    C    1  S      Val( 2S)     1.07984      -0.16629
     3    C    1  px     Val( 2p)     0.98307       0.15121
     4    C    1  py     Val( 2p)     0.98500       0.15471
     5    C    1  pz     Val( 2p)     1.00772       0.04743
 
     6    C    2  S      Cor( 1S)     1.99990     -10.94694
     7    C    2  S      Val( 2S)     1.07938      -0.17418
     8    C    2  px     Val( 2p)     0.94475       0.16504
     9    C    2  py     Val( 2p)     0.96084       0.17461
    10    C    2  pz     Val( 2p)     0.99849       0.05775
 
    11    C    3  S      Cor( 1S)     1.99995     -10.93880
    12    C    3  S      Val( 2S)     1.08419      -0.17388
    13    C    3  px     Val( 2p)     0.97132       0.15749
    14    C    3  py     Val( 2p)     0.97692       0.15483
    15    C    3  pz     Val( 2p)     1.00253       0.04698
 
    16    C    4  S      Cor( 1S)     1.99993     -10.93273
    17    C    4  S      Val( 2S)     1.07194      -0.16545
    18    C    4  px     Val( 2p)     0.99348       0.14437
    19    C    4  py     Val( 2p)     0.97847       0.15751
    20    C    4  pz     Val( 2p)     1.04352       0.03601
 
    21    C    5  S      Cor( 1S)     1.99985     -10.97950
    22    C    5  S      Val( 2S)     1.05916      -0.17631
    23    C    5  px     Val( 2p)     0.90041       0.15673
    24    C    5  py     Val( 2p)     0.97584       0.15465
    25    C    5  pz     Val( 2p)     0.95419       0.05390
 
    26    C    6  S      Cor( 1S)     1.99990     -10.93772
    27    C    6  S      Val( 2S)     1.08231      -0.17836
    28    C    6  px     Val( 2p)     0.97857       0.16471
    29    C    6  py     Val( 2p)     0.95992       0.14201
    30    C    6  pz     Val( 2p)     1.00477       0.06052
 
    31    N    7  S      Cor( 1S)     1.99998     -15.26341
    32    N    7  S      Val( 2S)     1.40592      -0.58953
    33    N    7  px     Val( 2p)     1.06109       0.03390
    34    N    7  py     Val( 2p)     1.09023       0.00974
    35    N    7  pz     Val( 2p)     1.71792      -0.23676
 
    36    C    8  S      Cor( 1S)     1.99996     -11.00187
    37    C    8  S      Val( 2S)     1.10868      -0.22685
    38    C    8  px     Val( 2p)     0.94661       0.09897
    39    C    8  py     Val( 2p)     0.95672       0.11821
    40    C    8  pz     Val( 2p)     0.96831       0.09302
 
    41    C    9  S      Cor( 1S)     1.99996     -11.04607
    42    C    9  S      Val( 2S)     1.11192      -0.25211
    43    C    9  px     Val( 2p)     0.94824       0.08484
    44    C    9  py     Val( 2p)     0.82826       0.13587
    45    C    9  pz     Val( 2p)     0.94014       0.08481
 
    46    C   10  S      Cor( 1S)     1.99993     -11.01415
    47    C   10  S      Val( 2S)     1.09713      -0.21580
    48    C   10  px     Val( 2p)     0.91140       0.11824
    49    C   10  py     Val( 2p)     0.95494       0.08453
    50    C   10  pz     Val( 2p)     0.96235       0.09813
 
    51    C   11  S      Cor( 1S)     1.99994     -10.97684
    52    C   11  S      Val( 2S)     1.10375      -0.21115
    53    C   11  px     Val( 2p)     1.01635       0.08558
    54    C   11  py     Val( 2p)     0.98230       0.09029
    55    C   11  pz     Val( 2p)     0.98283       0.08701
 
    56    C   12  S      Cor( 1S)     1.99996     -10.97518
    57    C   12  S      Val( 2S)     1.09144      -0.19740
    58    C   12  px     Val( 2p)     1.01093       0.08820
    59    C   12  py     Val( 2p)     0.97775       0.09356
    60    C   12  pz     Val( 2p)     0.99364       0.09281
 
    61    C   13  S      Cor( 1S)     1.99998     -11.00203
    62    C   13  S      Val( 2S)     1.10495      -0.22570
    63    C   13  px     Val( 2p)     0.94353       0.11146
    64    C   13  py     Val( 2p)     0.95250       0.10984
    65    C   13  pz     Val( 2p)     0.94873       0.10438
 
    66    N   14  S      Cor( 1S)     1.99999     -15.23702
    67    N   14  S      Val( 2S)     1.42193      -0.57911
    68    N   14  px     Val( 2p)     1.54426      -0.14942
    69    N   14  py     Val( 2p)     1.20903      -0.01289
    70    N   14  pz     Val( 2p)     1.10555       0.02435
 
    71    C   15  S      Cor( 1S)     1.99994     -11.00901
    72    C   15  S      Val( 2S)     1.06900      -0.19001
    73    C   15  px     Val( 2p)     0.98375       0.08333
    74    C   15  py     Val( 2p)     0.87712       0.12513
    75    C   15  pz     Val( 2p)     1.03140       0.07080
 
    76    C   16  S      Cor( 1S)     1.99997     -10.97677
    77    C   16  S      Val( 2S)     1.08094      -0.19011
    78    C   16  px     Val( 2p)     0.99092       0.09068
    79    C   16  py     Val( 2p)     1.00159       0.08833
    80    C   16  pz     Val( 2p)     1.00081       0.09270
 
    81    C   17  S      Cor( 1S)     1.99996     -10.97835
    82    C   17  S      Val( 2S)     1.08593      -0.19386
    83    C   17  px     Val( 2p)     1.00254       0.08976
    84    C   17  py     Val( 2p)     0.98322       0.09239
    85    C   17  pz     Val( 2p)     0.99669       0.09165
 
    86    C   18  S      Cor( 1S)     1.99995     -10.97263
    87    C   18  S      Val( 2S)     1.09228      -0.19327
    88    C   18  px     Val( 2p)     1.01602       0.08877
    89    C   18  py     Val( 2p)     0.98892       0.09476
    90    C   18  pz     Val( 2p)     0.97757       0.09941
 
    91    C   19  S      Cor( 1S)     1.99994     -10.99871
    92    C   19  S      Val( 2S)     1.07135      -0.18299
    93    C   19  px     Val( 2p)     1.01195       0.08686
    94    C   19  py     Val( 2p)     0.97830       0.08364
    95    C   19  pz     Val( 2p)     0.90475       0.12340
 
    96    C   20  S      Cor( 1S)     1.99992     -10.98242
    97    C   20  S      Val( 2S)     1.09971      -0.21028
    98    C   20  px     Val( 2p)     1.00295       0.08116
    99    C   20  py     Val( 2p)     0.96210       0.09276
   100    C   20  pz     Val( 2p)     1.00903       0.08274
 
   101    C   21  S      Cor( 1S)     1.99994     -11.00598
   102    C   21  S      Val( 2S)     1.11089      -0.23665
   103    C   21  px     Val( 2p)     1.01116       0.07141
   104    C   21  py     Val( 2p)     0.98722       0.07180
   105    C   21  pz     Val( 2p)     0.97520       0.07762
 
   106    C   22  S      Cor( 1S)     1.99991     -11.11021
   107    C   22  S      Val( 2S)     1.05510      -0.25917
   108    C   22  px     Val( 2p)     0.82589       0.06225
   109    C   22  py     Val( 2p)     0.81381       0.09261
   110    C   22  pz     Val( 2p)     0.90193       0.12611
 
   111    O   23  S      Cor( 1S)     1.99999     -20.09647
   112    O   23  S      Val( 2S)     1.80818      -1.05650
   113    O   23  px     Val( 2p)     1.40639      -0.16773
   114    O   23  py     Val( 2p)     1.52449      -0.20621
   115    O   23  pz     Val( 2p)     1.57324      -0.20235
 
   116    O   24  S      Cor( 1S)     1.99999     -20.21372
   117    O   24  S      Val( 2S)     1.73007      -1.02620
   118    O   24  px     Val( 2p)     1.64956      -0.28602
   119    O   24  py     Val( 2p)     1.51077      -0.22280
   120    O   24  pz     Val( 2p)     1.37634      -0.17034
 
   121    C   25  S      Cor( 1S)     1.99984     -11.04426
   122    C   25  S      Val( 2S)     1.07691      -0.22587
   123    C   25  px     Val( 2p)     1.04190       0.03792
   124    C   25  py     Val( 2p)     1.01576       0.04139
   125    C   25  pz     Val( 2p)     0.83089       0.08780
 
   126    C   26  S      Cor( 1S)     1.99992     -11.01145
   127    C   26  S      Val( 2S)     1.06522      -0.19190
   128    C   26  px     Val( 2p)     0.91393       0.09307
   129    C   26  py     Val( 2p)     1.02100       0.06054
   130    C   26  pz     Val( 2p)     1.01623       0.07239
 
   131    C   27  S      Cor( 1S)     1.99995     -10.97137
   132    C   27  S      Val( 2S)     1.08303      -0.17645
   133    C   27  px     Val( 2p)     0.97888       0.10831
   134    C   27  py     Val( 2p)     1.02499       0.09743
   135    C   27  pz     Val( 2p)     0.99961       0.10231
 
   136    C   28  S      Cor( 1S)     1.99990     -10.94335
   137    C   28  S      Val( 2S)     1.07770      -0.17083
   138    C   28  px     Val( 2p)     0.96421       0.12106
   139    C   28  py     Val( 2p)     0.96877       0.16365
   140    C   28  pz     Val( 2p)     0.97699       0.11773
 
   141    C   29  S      Cor( 1S)     1.99993     -10.93118
   142    C   29  S      Val( 2S)     1.08594      -0.16502
   143    C   29  px     Val( 2p)     0.98808       0.10205
   144    C   29  py     Val( 2p)     0.98704       0.14803
   145    C   29  pz     Val( 2p)     0.99060       0.11794
 
   146    C   30  S      Cor( 1S)     1.99994     -10.93881
   147    C   30  S      Val( 2S)     1.08316      -0.17243
   148    C   30  px     Val( 2p)     0.98485       0.10213
   149    C   30  py     Val( 2p)     0.98380       0.14326
   150    C   30  pz     Val( 2p)     0.97989       0.11491
 
   151    C   31  S      Cor( 1S)     1.99993     -10.93266
   152    C   31  S      Val( 2S)     1.07106      -0.16507
   153    C   31  px     Val( 2p)     1.01897       0.08637
   154    C   31  py     Val( 2p)     0.98389       0.14874
   155    C   31  pz     Val( 2p)     1.01574       0.10114
 
   156    C   32  S      Cor( 1S)     1.99985     -10.98096
   157    C   32  S      Val( 2S)     1.06017      -0.17870
   158    C   32  px     Val( 2p)     0.91501       0.10342
   159    C   32  py     Val( 2p)     0.97883       0.14552
   160    C   32  pz     Val( 2p)     0.93454       0.11255
 
   161    C   33  S      Cor( 1S)     1.99990     -10.93842
   162    C   33  S      Val( 2S)     1.08092      -0.17839
   163    C   33  px     Val( 2p)     0.99704       0.10345
   164    C   33  py     Val( 2p)     0.95599       0.14051
   165    C   33  pz     Val( 2p)     0.99475       0.12134
 
   166    N   34  S      Cor( 1S)     1.99998     -15.26706
   167    N   34  S      Val( 2S)     1.40793      -0.59415
   168    N   34  px     Val( 2p)     1.62026      -0.19941
   169    N   34  py     Val( 2p)     1.09426       0.00432
   170    N   34  pz     Val( 2p)     1.15321      -0.00932
 
   171    C   35  S      Cor( 1S)     1.99996     -11.01467
   172    C   35  S      Val( 2S)     1.10995      -0.23920
   173    C   35  px     Val( 2p)     0.97588       0.07345
   174    C   35  py     Val( 2p)     0.95263       0.10774
   175    C   35  pz     Val( 2p)     0.93991       0.09801
 
   176    C   36  S      Cor( 1S)     1.99996     -11.05324
   177    C   36  S      Val( 2S)     1.11251      -0.25966
   178    C   36  px     Val( 2p)     0.93510       0.08051
   179    C   36  py     Val( 2p)     0.83137       0.12718
   180    C   36  pz     Val( 2p)     0.94973       0.07608
 
   181    C   37  S      Cor( 1S)     1.99991     -11.03583
   182    C   37  S      Val( 2S)     1.12117      -0.25764
   183    C   37  px     Val( 2p)     1.00022       0.06234
   184    C   37  py     Val( 2p)     0.95807       0.06234
   185    C   37  pz     Val( 2p)     0.84793       0.10676
 
   186    C   38  S      Cor( 1S)     1.99994     -10.98279
   187    C   38  S      Val( 2S)     1.10478      -0.21800
   188    C   38  px     Val( 2p)     0.99517       0.08005
   189    C   38  py     Val( 2p)     0.97930       0.08490
   190    C   38  pz     Val( 2p)     1.00691       0.07970
 
   191    C   39  S      Cor( 1S)     1.99995     -10.98374
   192    C   39  S      Val( 2S)     1.09227      -0.20637
   193    C   39  px     Val( 2p)     1.00658       0.08223
   194    C   39  py     Val( 2p)     0.97925       0.08429
   195    C   39  pz     Val( 2p)     0.99660       0.08215
 
   196    C   40  S      Cor( 1S)     1.99998     -11.01979
   197    C   40  S      Val( 2S)     1.10477      -0.24247
   198    C   40  px     Val( 2p)     0.95064       0.08962
   199    C   40  py     Val( 2p)     0.94809       0.09545
   200    C   40  pz     Val( 2p)     0.94622       0.08983
 
   201    N   41  S      Cor( 1S)     1.99999     -15.41294
   202    N   41  S      Val( 2S)     1.40185      -0.65659
   203    N   41  px     Val( 2p)     1.18981      -0.10633
   204    N   41  py     Val( 2p)     1.15972      -0.09592
   205    N   41  pz     Val( 2p)     1.22260      -0.11491
 
   206    C   42  S      Cor( 1S)     1.99991     -11.03163
   207    C   42  S      Val( 2S)     1.08936      -0.22865
   208    C   42  px     Val( 2p)     1.04813       0.04525
   209    C   42  py     Val( 2p)     0.82028       0.10450
   210    C   42  pz     Val( 2p)     0.99868       0.06080
 
   211    C   43  S      Cor( 1S)     1.99997     -10.99580
   212    C   43  S      Val( 2S)     1.07891      -0.20665
   213    C   43  px     Val( 2p)     1.01204       0.07263
   214    C   43  py     Val( 2p)     1.01131       0.06523
   215    C   43  pz     Val( 2p)     0.97876       0.07404
 
   216    C   44  S      Cor( 1S)     1.99996     -10.99220
   217    C   44  S      Val( 2S)     1.08468      -0.20677
   218    C   44  px     Val( 2p)     1.01038       0.07500
   219    C   44  py     Val( 2p)     0.98174       0.07825
   220    C   44  pz     Val( 2p)     0.99328       0.07678
 
   221    C   45  S      Cor( 1S)     1.99994     -10.98531
   222    C   45  S      Val( 2S)     1.09321      -0.20545
   223    C   45  px     Val( 2p)     1.00297       0.08544
   224    C   45  py     Val( 2p)     0.98132       0.08558
   225    C   45  pz     Val( 2p)     1.00317       0.07728
 
   226    C   46  S      Cor( 1S)     1.99992     -11.02428
   227    C   46  S      Val( 2S)     1.09070      -0.22291
   228    C   46  px     Val( 2p)     0.85307       0.09939
   229    C   46  py     Val( 2p)     0.97806       0.06433
   230    C   46  pz     Val( 2p)     1.03980       0.05492
 
   231    C   47  S      Cor( 1S)     1.99992     -10.99325
   232    C   47  S      Val( 2S)     1.09916      -0.22110
   233    C   47  px     Val( 2p)     0.98850       0.07487
   234    C   47  py     Val( 2p)     0.96660       0.07995
   235    C   47  pz     Val( 2p)     1.02100       0.06674
 
   236    C   48  S      Cor( 1S)     1.99995     -11.01289
[...]
                         Standard Origin              Atomic Origin
 NLMO      Total    Paramagnetic  Diamagnetic   Paramagnetic  Diamagnetic
   98      -0.2092        0.8245      -1.0337        -1.2806       1.0714
  100      -0.2431        0.5234      -0.7665        -1.0406       0.7975
  102       1.1018        1.1692      -0.0673         0.2957       0.8062
  105       1.3637       -0.0873       1.4511         0.4718       0.8920
  106       1.9544        4.3089      -2.3545         0.1282       1.8262
  107      26.3890       -0.2817      26.6706         0.5309      25.8581
  109       0.2230        1.1542      -0.9312        -0.6439       0.8669
  113      -0.1776       -1.2718       1.0942        -0.3180       0.1404
  116      -0.3087       -1.6112       1.3025        -0.6222       0.3135
 Sum       30.0934        4.7281      25.3653        -2.4787      32.5721

 Contributions to Isotropic shielding for atom   96 (    32.2867 ppm):
                         Standard Origin              Atomic Origin
 NLMO      Total    Paramagnetic  Diamagnetic   Paramagnetic  Diamagnetic
   97       2.1680       -2.1052       4.2732         1.3532       0.8148
   99       0.4043       -0.7487       1.1529        -0.2438       0.6481
  102       0.3168       -1.7134       2.0302        -0.4702       0.7870
  105       1.1717        1.0271       0.1446         0.2953       0.8764
  106       0.0790       -1.2936       1.3726        -0.8340       0.9130
  108      26.0675        0.5313      25.5361         0.3024      25.7650
  109       1.7840        1.2953       0.4887        -0.0037       1.7877
 Sum       31.9912       -3.0072      34.9984         0.3992      31.5920

 Contributions to Isotropic shielding for atom   97 (    32.3760 ppm):
                         Standard Origin              Atomic Origin
 NLMO      Total    Paramagnetic  Diamagnetic   Paramagnetic  Diamagnetic
   97       1.3683        0.2652       1.1031         0.5953       0.7730
   98      -0.2382        1.0581      -1.2963        -1.2838       1.0456
  105       0.3344        3.6031      -3.2687        -0.6106       0.9450
  108       2.3428        0.4253       1.9175         0.5649       1.7779
  109      26.3764       -0.1497      26.5261         0.5609      25.8155
  117      -0.0478       -1.2480       1.2002        -0.8973       0.8495
 Sum       30.1357        3.9539      26.1819        -1.0707      31.2064

 Contributions to Isotropic shielding for atom   98 (    31.4760 ppm):
                         Standard Origin              Atomic Origin
 NLMO      Total    Paramagnetic  Diamagnetic   Paramagnetic  Diamagnetic
   71      -1.0125        0.3690      -1.3815        -2.1050       1.0926
   80      -0.1964        1.3126      -1.5091        -1.2822       1.0858
   85       2.2139       -1.8935       4.1073         1.3718       0.8421
  100       0.6117       -0.9952       1.6069        -0.0455       0.6572
  110       0.5421        1.1084      -0.5662        -0.3528       0.8949
  111      25.6905        0.0460      25.6445         0.5461      25.1444
  112       1.6562        2.5503      -0.8942        -0.3493       2.0055
  114      -0.0523       -1.0285       0.9762        -1.1449       1.0927
  121       0.0406       -0.9798       1.0204        -0.7521       0.7927
 Sum       29.4938        0.4894      29.0044        -4.1140      33.6078

 Contributions to Isotropic shielding for atom   99 (    32.7545 ppm):
                         Standard Origin              Atomic Origin
 NLMO      Total    Paramagnetic  Diamagnetic   Paramagnetic  Diamagnetic
   71      -0.3132        0.1757      -0.4889        -1.0400       0.7268
   83      -0.3752        1.2568      -1.6319        -0.9786       0.6035
   85       1.5239       -0.5244       2.0483         0.7934       0.7305
   87      -0.3706        0.1734      -0.5440        -1.2074       0.8367
   89      -0.2207        0.2950      -0.5157        -1.1400       0.9193
  100       0.5242       -0.8449       1.3691         0.4779       0.0463
  110       0.1786        2.8078      -2.6292        -0.4806       0.6591
  111       1.9849        2.6267      -0.6418         0.0535       1.9314
  112      26.0715       -0.1495      26.2210         0.5786      25.4928
  118       0.6257       -0.9482       1.5739        -0.1975       0.8233
  120       1.2968       -0.3817       1.6786         0.3821       0.9147
  121      -0.3108       -3.0047       2.6939        -1.2836       0.9728
  125       0.0554       -1.7254       1.7808        -0.4363       0.4918
  191      -0.4884        1.1433      -1.6317         0.3734      -0.8617
 Sum       30.1822        0.8998      29.2824        -4.1051      34.2873

 Contributions to Isotropic shielding for atom  100 (    31.3693 ppm):
                         Standard Origin              Atomic Origin
 NLMO      Total    Paramagnetic  Diamagnetic   Paramagnetic  Diamagnetic
   84      -0.2352        0.7343      -0.9695        -1.0014       0.7662
   88      -0.2810        0.8796      -1.1606        -1.0106       0.7296
   99      -0.5410        1.2654      -1.8063        -1.4393       0.8983
  100       1.1293       -0.7139       1.8432         0.5454       0.5839
  107      -0.2527       -1.6409       1.3882        -0.7822       0.5295
  113      26.5856        0.2892      26.2964         1.0192      25.5664
  114       1.1821        2.9555      -1.7733        -0.7198       1.9020
  116      -0.4481       -2.3632       1.9150        -0.4791       0.0310
  120       0.6478       -0.6410       1.2888         0.2267       0.4211
  121       0.2479       -2.0630       2.3109        -0.7303       0.9782
  191      -0.6387        1.2053      -1.8440         0.2555      -0.8942
 Sum       27.3960       -0.0927      27.4887        -4.1160      31.5120

 Contributions to Isotropic shielding for atom  101 (    30.8682 ppm):
                         Standard Origin              Atomic Origin
 NLMO      Total    Paramagnetic  Diamagnetic   Paramagnetic  Diamagnetic
   71      -0.1760        0.0429      -0.2190        -1.0040       0.8280
   84      -0.1549        0.5604      -0.7153        -1.0096       0.8547
   99      -0.6157        0.9873      -1.6030        -1.2842       0.6685
  100       0.8782       -0.2065       1.0846         0.0117       0.8665
  101       0.0266        1.1722      -1.1455        -0.9968       1.0234
  104      -0.0073       -1.0169       1.0096        -0.7701       0.7628
  111      -0.0609        0.6746      -0.7355        -1.2351       1.1742
  113       1.0372        2.4938      -1.4566        -0.7160       1.7532
  114      25.9385        0.3696      25.5689         1.0220      24.9165
  121       0.0600       -0.9746       1.0346        -0.5581       0.6182
  195       0.3983       -1.4299       1.8282         1.2202      -0.8218
 Sum       27.3241        2.6730      24.6511        -5.3200      32.6441

 Contributions to Isotropic shielding for atom  102 (    31.5398 ppm):
                         Standard Origin              Atomic Origin
 NLMO      Total    Paramagnetic  Diamagnetic   Paramagnetic  Diamagnetic
   87       0.3015       -0.8041       1.1056         0.0170       0.2845
   97      -0.2737        1.3149      -1.5887        -0.9975       0.7238
   98       1.5685       -0.4705       2.0389         0.6291       0.9394
  105      -0.0761        0.0389      -0.1151        -1.0124       0.9363
  107      -0.3563       -2.5679       2.2116        -0.7185       0.3623
  113      -0.3961       -2.4002       2.0042        -0.2507      -0.1454
  115       0.4282        2.0951      -1.6669        -0.4227       0.8508
  116      26.3505       -0.3229      26.6734         0.6922      25.6583
  117       1.6530        3.6368      -1.9838        -0.2559       1.9089
  118      -0.2076        0.2997      -0.5073        -1.3010       1.0934
  120       0.4582       -1.5975       2.0557        -0.4216       0.8798
  121       0.5976       -2.3813       2.9789        -1.1074       1.7050
  191      -0.6989        1.0167      -1.7156         0.2079      -0.9068
 Sum       29.3488       -2.1423      31.4911        -4.9415      34.2903

 Contributions to Isotropic shielding for atom  103 (    32.1483 ppm):
                         Standard Origin              Atomic Origin
 NLMO      Total    Paramagnetic  Diamagnetic   Paramagnetic  Diamagnetic
   87       0.4081       -0.8415       1.2497         0.2020       0.2062
   94      -0.1372        1.0901      -1.2273        -0.9947       0.8575
   97      -0.2178        1.2962      -1.5140        -1.0301       0.8123
   98       1.9519       -0.6819       2.6338         0.9591       0.9928
  115       0.6591        1.8386      -1.1795        -0.4084       1.0675
  116       1.5408        3.3495      -1.8087        -0.3583       1.8991
  117      26.4657       -0.2910      26.7568         0.6146      25.8511
  118      -0.0390        1.0508      -1.0898        -0.3731       0.3341
  119      -0.1961       -0.4370       0.2410        -1.3475       1.1515
  121       0.2417       -0.8143       1.0560        -0.7862       1.0279
 Sum       30.6774        5.5595      25.1179        -3.5226      34.2000

 Contributions to Isotropic shielding for atom  104 (    31.1343 ppm):
                         Standard Origin              Atomic Origin
 NLMO      Total    Paramagnetic  Diamagnetic   Paramagnetic  Diamagnetic
   81      -0.3713        1.0887      -1.4599        -1.0779       0.7067
   82      -0.0627        0.0284      -0.0911        -1.0104       0.9478
   86      -0.3382        1.3110      -1.6492        -1.4536       1.1153
   87       2.2806       -1.1238       3.4044         1.3386       0.9420
   98       0.3267       -0.9809       1.3076         0.1117       0.2151
  115       1.3291        0.9665       0.3626         0.2021       1.1270
  117      -0.2438       -0.4306       0.1868        -1.4119       1.1682
  118       0.1429        4.3667      -4.2238        -0.7425       0.8854
  119      25.8894       -0.4129      26.3023         0.3706      25.5188
  122       1.0908       -2.4434       3.5341        -0.5846       1.6754
  125       0.1511       -0.8877       1.0388        -0.3015       0.4527
  127      -0.2468       -1.7264       1.4797        -0.6676       0.4208
  193      -0.8740        0.5497      -1.4238         0.1291      -1.0031
  194      -0.1937       -1.1100       0.9163        -0.7704       0.5767
 Sum       28.8802       -0.8047      29.6849        -5.8685      34.7487

 Contributions to Isotropic shielding for atom  105 (    30.4814 ppm):
                         Standard Origin              Atomic Origin
 NLMO      Total    Paramagnetic  Diamagnetic   Paramagnetic  Diamagnetic
  120      -0.6532        0.3029      -0.9560        -1.2741       0.6210
  121      -0.1295        1.0532      -1.1827        -1.1604       1.0309
  122      -0.6492        0.5113      -1.1605        -0.6855       0.0363
  123       1.3152       -0.2181       1.5333        -0.7614       2.0766
  124      25.9792        0.3933      25.5860         0.8015      25.1778
  125       1.1874        1.3643      -0.1769        -0.8081       1.9954
  126       0.5389        3.7081      -3.1692        -1.4460       1.9848
  193       1.0502       -0.8219       1.8721         1.5197      -0.4695
  194       1.0211        0.5088       0.5123         0.7644       0.2567
 Sum       29.6600        6.8017      22.8583        -3.0498      32.7098

 Contributions to Isotropic shielding for atom  106 (    30.5808 ppm):
                         Standard Origin              Atomic Origin
 NLMO      Total    Paramagnetic  Diamagnetic   Paramagnetic  Diamagnetic
  120      -0.9293        0.6380      -1.5673        -1.8369       0.9076
  121      -0.4265        1.4269      -1.8534        -1.9520       1.5255
  122      -1.5923        1.6779      -3.2702        -2.4431       0.8509
  123       2.7157       -4.5007       7.2164         1.3005       1.4152
  124       1.4753        1.9895      -0.5143        -0.5691       2.0443
  125      26.2192        0.9668      25.2524         1.0587      25.1606
  126       0.9918        2.2204      -1.2286        -0.8826       1.8744
  191       0.3489       -1.1014       1.4502         1.1156      -0.7667
  193       0.9816       -0.2559       1.2375         1.0319      -0.0503
 Sum       29.7844        3.0616      26.7228        -3.1771      32.9615

 Contributions to Isotropic shielding for atom  107 (    30.5336 ppm):
                         Standard Origin              Atomic Origin
 NLMO      Total    Paramagnetic  Diamagnetic   Paramagnetic  Diamagnetic
  120      -1.2959        0.8847      -2.1805        -2.1893       0.8934
  121      -0.5351        2.0890      -2.6241        -2.0960       1.5609
  122      -2.1348        1.6658      -3.8006        -2.9171       0.7823
  123       1.4024       -0.0800       1.4823        -0.0660       1.4683
  124       1.2017        4.3463      -3.1446        -0.8398       2.0415
  125       1.2464        1.7212      -0.4748        -0.6252       1.8715
  126      26.5413        0.6616      25.8797         1.3038      25.2375
  191       0.5860       -1.6320       2.2180         1.3598      -0.7738
  192       0.8354        0.9490      -0.1137         1.0591      -0.2237
  193       1.5670       -1.3512       2.9182         1.6275      -0.0605
  194       0.4712        1.1961      -0.7249        -0.0002       0.4715
 Sum       29.8856       10.4507      19.4350        -3.3834      33.2691

 Contributions to Isotropic shielding for atom  108 (    30.9435 ppm):
                         Standard Origin              Atomic Origin
 NLMO      Total    Paramagnetic  Diamagnetic   Paramagnetic  Diamagnetic
   76      -0.3605       -0.1081      -0.2524        -1.2185       0.8580
   81      -0.3514        0.5890      -0.9404        -1.0772       0.7258
   82       1.0509        0.3377       0.7132        -0.1440       1.1949
   87      -0.1462        0.6285      -0.7748        -1.0298       0.8836
  122       1.1101       -1.1386       2.2487         0.5188       0.5913
  124       0.0731       -1.3348       1.4079        -0.6455       0.7186
  127      26.0208        0.2349      25.7859         0.6547      25.3662
  128       1.5109        3.4900      -1.9791        -0.4739       1.9848
  129       1.8722        0.1727       1.6995         0.0398       1.8324
  193      -1.0455        0.6737      -1.7192         0.2413      -1.2868
 Sum       29.7345        3.5450      26.1894        -3.1343      32.8688

 Contributions to Isotropic shielding for atom  109 (    30.7491 ppm):
                         Standard Origin              Atomic Origin
 NLMO      Total    Paramagnetic  Diamagnetic   Paramagnetic  Diamagnetic
   75      -0.5105        0.4319      -0.9424        -1.2274       0.7169
   76      -0.6769        0.0921      -0.7689        -2.0336       1.3567
   82       1.0429        0.8646       0.1783        -0.2175       1.2604
  122       0.6578       -0.5193       1.1771         0.3499       0.3079
  124       0.0121       -1.2372       1.2493        -0.6041       0.6162
  127       1.5560        3.4446      -1.8886        -0.4124       1.9685
  128      26.0460        0.1425      25.9035         0.7012      25.3448
  129       1.8346        0.5423       1.2923         0.0391       1.7955
 Sum       29.9620        3.7616      26.2005        -3.4047      33.3667

 Contributions to Isotropic shielding for atom  110 (    31.9691 ppm):
                         Standard Origin              Atomic Origin
 NLMO      Total    Paramagnetic  Diamagnetic   Paramagnetic  Diamagnetic
   76      -0.4849       -0.3354      -0.1496        -1.7022       1.2172
   82       1.9176       -2.8531       4.7708         1.1515       0.7662
   86      -0.1192        0.3194      -0.4386        -1.1542       1.0351
  122       0.5284       -0.5997       1.1281        -0.0531       0.5815
  127       1.8431        0.8872       0.9559        -0.0722       1.9153
  128       1.8356        1.4875       0.3481        -0.0586       1.8942
  129      26.3144        0.8257      25.4886         0.6272      25.6872
 Sum       31.8350       -0.2682      32.1033        -1.2617      33.0967
 
 1\1\GINC-PCSN02\SP\RHF\STO-3G\C45H56N4O5\ABENIDD\30-May-2024\0\\# nmr=
 giao hf/sto-3g pop=nbo geom=connectivity\\pleiokomenine_C_1a\\0,1\C,0,
 0.,0.,0.\C,0,1.4025,0.,0.\C,0,2.0869,1.2331,0.\C,0,1.3933,2.4531,0.003
 7\C,0,0.009,2.4404,0.0039\C,0,-0.6701,1.2121,0.0276\N,0,-0.8834,3.5463
 ,-0.0242\C,0,-2.1481,1.4728,0.1615\C,0,-2.1548,2.918,-0.4723\C,0,-3.16
 67,0.5879,-0.5712\C,0,-2.1421,2.7816,-2.0571\C,0,-3.3908,2.0473,-2.562
 9\C,0,-4.1745,1.4961,-1.3553\N,0,-3.7487,-0.2601,0.4739\C,0,-4.9752,-0
 .9466,0.0997\C,0,-6.0066,-0.0832,-0.6256\C,0,-5.3816,0.6608,-1.8059\C,
 0,-2.4853,1.2896,1.662\C,0,-3.7895,0.5045,1.7098\C,0,-4.6441,2.7582,-0
 .5538\C,0,-3.4558,3.6819,-0.1691\C,0,-3.604,4.2596,1.2274\O,0,-4.3663,
 3.8359,2.0876\O,0,-2.8285,5.3705,1.3737\C,0,-2.8806,5.9537,2.6752\C,0,
 -0.3873,4.7677,-0.6386\C,0,2.1688,-1.3089,0.007\C,0,1.7987,-2.2084,1.1
 672\C,0,0.7898,-3.1676,1.0087\C,0,2.399,-2.0369,2.4303\C,0,1.9823,-2.7
 866,3.5377\C,0,0.9355,-3.6813,3.3867\C,0,0.3618,-3.8761,2.119\N,0,0.28
 32,-4.4461,4.3926\C,0,-0.7191,-4.9228,2.2194\C,0,-1.0283,-4.731,3.7599
 \C,0,-2.0282,-4.7689,1.4243\C,0,-1.985,-3.4684,3.9359\C,0,-3.3249,-3.6
 797,3.2176\C,0,-3.2474,-4.9766,2.3858\N,0,-1.9188,-5.7566,0.2746\C,0,-
 3.2422,-6.1153,-0.3481\C,0,-4.3805,-6.3663,0.6215\C,0,-4.535,-5.1964,1
 .5858\C,0,-0.1037,-6.2548,1.7214\C,0,-1.1577,-6.9133,0.8403\C,0,-3.063
 8,-6.1226,3.4393\C,0,-1.8319,-5.8986,4.352\C,0,-1.0774,-7.1894,4.6163\
 O,0,-1.1844,-8.2078,3.9434\O,0,-0.3208,-7.0881,5.7429\C,0,0.4555,-8.25
 ,6.0349\C,0,0.369,-3.934,5.7527\O,0,-1.1604,-5.1955,-0.7445\H,0,-0.565
 2,-0.9272,0.0186\H,0,3.1746,1.2506,0.0034\H,0,1.9483,3.3839,0.0098\H,0
 ,-2.6641,-0.0789,-1.285\H,0,-2.0979,3.7717,-2.529\H,0,-1.2497,2.2518,-
 2.4128\H,0,-4.0152,2.7319,-3.1507\H,0,-3.0927,1.2415,-3.2452\H,0,-4.7,
 -1.7776,-0.5629\H,0,-5.4346,-1.4165,0.9779\H,0,-6.8182,-0.7226,-0.9927
 \H,0,-6.4639,0.624,0.0749\H,0,-5.0666,-0.0733,-2.5591\H,0,-6.1369,1.29
 52,-2.2849\H,0,-2.5256,2.2173,2.2319\H,0,-1.7233,0.6781,2.1675\H,0,-3.
 8133,-0.1538,2.5848\H,0,-4.6542,1.1663,1.7781\H,0,-5.3335,3.3421,-1.18
 07\H,0,-5.2432,2.4774,0.3126\H,0,-3.5206,4.5603,-0.8295\H,0,-3.8863,6.
 3314,2.8838\H,0,-2.5718,5.229,3.4353\H,0,-2.1827,6.7952,2.6973\H,0,0.0
 395,4.5854,-1.6314\H,0,0.3791,5.2295,-0.007\H,0,-1.1925,5.5003,-0.75\H
 ,0,3.2496,-1.1201,0.0396\H,0,1.9903,-1.826,-0.9448\H,0,0.3263,-3.3326,
 0.0388\H,0,3.1818,-1.293,2.5608\H,0,2.4555,-2.6259,4.4991\H,0,-2.1095,
 -3.7889,0.9333\H,0,-2.1795,-3.2779,4.9992\H,0,-1.5214,-2.5488,3.5573\H
 ,0,-3.5444,-2.8126,2.5831\H,0,-4.1382,-3.7357,3.9522\H,0,-3.4987,-5.26
 6,-0.995\H,0,-3.0562,-6.9862,-0.9866\H,0,-5.3112,-6.4916,0.0559\H,0,-4
 .2239,-7.3046,1.1618\H,0,-4.7835,-4.291,1.0168\H,0,-5.3814,-5.3833,2.2
 576\H,0,0.7722,-6.0667,1.0838\H,0,0.2682,-6.9103,2.5074\H,0,-1.8497,-7
 .5496,1.3876\H,0,-0.7273,-7.4794,0.0078\H,0,-3.0455,-7.1024,2.9636\H,0
 ,-3.9543,-6.1574,4.0839\H,0,-2.2237,-5.6077,5.3387\H,0,1.0626,-8.0381,
 6.9193\H,0,1.1269,-8.484,5.2026\H,0,-0.1982,-9.0989,6.2576\H,0,-0.2874
 ,-4.4987,6.4218\H,0,1.3881,-4.0447,6.1387\H,0,0.0821,-2.8782,5.8159\\V
 ersion=ES64L-G16RevB.01\State=1-A\HF=-2300.225937\RMSD=9.713e-09\Dipol
 e=-1.2487623,0.3482446,1.0788793\Quadrupole=-4.4027168,6.8435291,-2.44
 08123,6.38777,6.9233536,-14.7758269\PG=C01 [X(C45H56N4O5)]\\@


 BE NOT THE FIRST BY WHOM THE NEW ARE TRIED,
 NOR YET THE THE LAST TO LAY THE OLD ASIDE.

                          -- ALEXANDER POPE
 Job cpu time:       0 days  0 hours 11 minutes 32.9 seconds.
 Elapsed time:       0 days  0 hours  1 minutes 56.2 seconds.
 File lengths (MBytes):  RWF=     67 Int=      0 D2E=      0 Chk=     10 Scr=      1
 Normal termination of Gaussian 16 at Thu May 30 09:14:19 2024.
