 Entering Gaussian System, Link 0=g16
 Input=1_pleiokomenine_1a_c_12.gjf
 Output=1_pleiokomenine_1a_c_12.log
 Initial command:
 /opt/gaussian/g16/l1.exe "/data/abenidd/Elvis/pleiokomenine_C/NMR_HF/1a/1_pleiokomenine_1a_c_12/Gau-24277.inp" -scrdir="/data/abenidd/Elvis/pleiokomenine_C/NMR_HF/1a/1_pleiokomenine_1a_c_12/"
 Entering Link 1 = /opt/gaussian/g16/l1.exe PID=     24279.
  
 Copyright (c) 1988-2017, Gaussian, Inc.  All Rights Reserved.
  
 This is part of the Gaussian(R) 16 program.  It is based on
 the Gaussian(R) 09 system (copyright 2009, Gaussian, Inc.),
 the Gaussian(R) 03 system (copyright 2003, Gaussian, Inc.),
 the Gaussian(R) 98 system (copyright 1998, Gaussian, Inc.),
 the Gaussian(R) 94 system (copyright 1995, Gaussian, Inc.),
 the Gaussian 92(TM) system (copyright 1992, Gaussian, Inc.),
 the Gaussian 90(TM) system (copyright 1990, Gaussian, Inc.),
 the Gaussian 88(TM) system (copyright 1988, Gaussian, Inc.),
 the Gaussian 86(TM) system (copyright 1986, Carnegie Mellon
 University), and the Gaussian 82(TM) system (copyright 1983,
 Carnegie Mellon University). Gaussian is a federally registered
 trademark of Gaussian, Inc.
  
 This software contains proprietary and confidential information,
 including trade secrets, belonging to Gaussian, Inc.
  
 This software is provided under written license and may be
 used, copied, transmitted, or stored only in accord with that
 written license.
  
 The following legend is applicable only to US Government
 contracts under FAR:
  
                    RESTRICTED RIGHTS LEGEND
  
 Use, reproduction and disclosure by the US Government is
 subject to restrictions as set forth in subparagraphs (a)
 and (c) of the Commercial Computer Software - Restricted
 Rights clause in FAR 52.227-19.
  
 Gaussian, Inc.
 340 Quinnipiac St., Bldg. 40, Wallingford CT 06492
  
  
 ---------------------------------------------------------------
 Warning -- This program may not be used in any manner that
 competes with the business of Gaussian, Inc. or will provide
 assistance to any competitor of Gaussian, Inc.  The licensee
 of this program is prohibited from giving any competitor of
 Gaussian, Inc. access to this program.  By using this program,
 the user acknowledges that Gaussian, Inc. is engaged in the
 business of creating and licensing software in the field of
 computational chemistry and represents and warrants to the
 licensee that it is not a competitor of Gaussian, Inc. and that
 it will not use this program in any manner prohibited above.
 ---------------------------------------------------------------
  

 Cite this work as:
 Gaussian 16, Revision B.01,
 M. J. Frisch, G. W. Trucks, H. B. Schlegel, G. E. Scuseria, 
 M. A. Robb, J. R. Cheeseman, G. Scalmani, V. Barone, 
 G. A. Petersson, H. Nakatsuji, X. Li, M. Caricato, A. V. Marenich, 
 J. Bloino, B. G. Janesko, R. Gomperts, B. Mennucci, H. P. Hratchian, 
 J. V. Ortiz, A. F. Izmaylov, J. L. Sonnenberg, D. Williams-Young, 
 F. Ding, F. Lipparini, F. Egidi, J. Goings, B. Peng, A. Petrone, 
 T. Henderson, D. Ranasinghe, V. G. Zakrzewski, J. Gao, N. Rega, 
 G. Zheng, W. Liang, M. Hada, M. Ehara, K. Toyota, R. Fukuda, 
 J. Hasegawa, M. Ishida, T. Nakajima, Y. Honda, O. Kitao, H. Nakai, 
 T. Vreven, K. Throssell, J. A. Montgomery, Jr., J. E. Peralta, 
 F. Ogliaro, M. J. Bearpark, J. J. Heyd, E. N. Brothers, K. N. Kudin, 
 V. N. Staroverov, T. A. Keith, R. Kobayashi, J. Normand, 
 K. Raghavachari, A. P. Rendell, J. C. Burant, S. S. Iyengar, 
 J. Tomasi, M. Cossi, J. M. Millam, M. Klene, C. Adamo, R. Cammi, 
 J. W. Ochterski, R. L. Martin, K. Morokuma, O. Farkas, 
 J. B. Foresman, and D. J. Fox, Gaussian, Inc., Wallingford CT, 2016.
 
 ******************************************
 Gaussian 16:  ES64L-G16RevB.01 20-Dec-2017
                30-May-2024 
 ******************************************
 %nprocshared=8
 Will use up to    8 processors via shared memory.
 ----------------------------------------------
 # nmr=giao hf/sto-3g pop=nbo geom=connectivity
 ----------------------------------------------
 1/38=1,57=2,172=1/1;
 2/12=2,17=6,18=5,40=1/2;
 3/6=3,11=9,25=1,30=1/1,2,3,8;
 4//1;
 5/5=2,38=5/2;
 8/6=1,10=90,11=11/1;
 10/13=100,45=16/2;
 6/7=2,8=2,9=2,10=2,28=1,40=1,64=1/1,7;
 99/9=1/99;
 ------------------
 pleiokomenine_C_1a
 ------------------
 Symbolic Z-matrix:
 Charge =  0 Multiplicity = 1
 C                     0.        0.        0. 
 C                     1.4019    0.        0. 
 C                     2.088     1.2331    0. 
 C                     1.3994    2.4518   -0.0679 
 C                     0.0189    2.4366   -0.1606 
 C                    -0.6654    1.2107   -0.1096 
 N                    -0.8626    3.5389   -0.3436 
 C                    -2.1475    1.4744   -0.1807 
 C                    -2.0686    2.8742   -0.9075 
 C                    -3.0631    0.5399   -0.9876 
 C                    -1.8547    2.6341   -2.4674 
 C                    -3.0317    1.8657   -3.0801 
 C                    -3.9627    1.3897   -1.9491 
 N                    -3.7745   -0.249     0.0227 
 C                    -4.9455   -0.9633   -0.4617 
 C                    -5.8761   -0.1511   -1.3612 
 C                    -5.1058    0.5228   -2.4961 
 C                    -2.678     1.3844    1.2692 
 C                    -3.9758    0.59      1.1941 
 C                    -4.527     2.6972   -1.2961 
 C                    -3.3948    3.65     -0.8242 
 C                    -3.7193    4.3168    0.5007 
 O                    -4.5889    3.9476    1.2807 
 O                    -2.9645    5.438     0.6745 
 C                    -3.1816    6.1033    1.918 
 C                    -0.2954    4.7182   -0.9816 
 C                     2.1849   -1.2984    0.0242 
 C                     1.6738   -2.4045   -0.8841 
 C                     1.1436   -2.1278   -2.1544 
 C                     1.7681   -3.7457   -0.4587 
 C                     1.2823   -4.796    -1.2467 
 C                     0.6884   -4.5034   -2.4623 
 C                     0.6503   -3.1747   -2.9194 
 N                     0.0439   -5.4012   -3.3569 
 C                     0.0154   -3.154    -4.2883 
 C                    -0.8126   -4.4932   -4.1563 
 C                    -0.9335   -2.0187   -4.6749 
 C                    -2.1533   -4.1813   -3.3569 
 C                    -3.0336   -3.1812   -4.1229 
 C                    -2.2287   -2.6044   -5.31 
 N                    -0.1538   -1.0236   -5.5442 
 C                    -0.6752   -0.9437   -6.9575 
 C                    -2.1779   -0.7093   -7.0334 
 C                    -3.0062   -1.4893   -6.0116 
 C                     1.1397   -3.0416   -5.3251 
 C                     1.2682   -1.5432   -5.5407 
 C                    -1.9732   -3.8279   -6.2597 
 C                    -1.3061   -5.0213   -5.5149 
 C                    -0.296    -5.7635   -6.3777 
 O                     0.1654   -5.3441   -7.432 
 O                    -0.0385   -6.9999   -5.8701 
 C                     0.9188   -7.7543   -6.6137 
 C                    -0.4988   -6.6182   -2.7667 
 O                    -0.1959    0.2308   -4.9909 
 H                    -0.5647   -0.9272    0.0476 
 H                     3.1753    1.2509    0.0338 
 H                     1.9558    3.3815   -0.081 
 H                    -2.4723   -0.1648   -1.5891 
 H                    -1.7458    3.5912   -2.9936 
 H                    -0.9275    2.0846   -2.6713 
 H                    -3.5733    2.5086   -3.7854 
 H                    -2.6532    1.0193   -3.6652 
 H                    -4.5902   -1.8299   -1.0345 
 H                    -5.5128   -1.3832    0.3778 
 H                    -6.6363   -0.8161   -1.7879 
 H                    -6.4162    0.5946   -0.768 
 H                    -4.7018   -0.2538   -3.1573 
 H                    -5.7931    1.123    -3.1042 
 H                    -2.7959    2.346     1.7674 
 H                    -1.9875    0.8151    1.9085 
 H                    -4.1127   -0.0146    2.0971 
 H                    -4.8427    1.247     1.1089 
 H                    -5.1304    3.2361   -2.0408 
 H                    -5.2312    2.4683   -0.496 
 H                    -3.3715    4.4829   -1.5438 
 H                    -2.9774    5.4301    2.7566 
 H                    -2.4883    6.9469    1.9762 
 H                    -4.2039    6.4904    1.9701 
 H                     0.2371    4.4733   -1.9076 
 H                     0.3991    5.2225   -0.3011 
 H                    -1.0799    5.4403   -1.2279 
 H                     3.2283   -1.1096   -0.2587 
 H                     2.192    -1.6477    1.0648 
 H                     1.0866   -1.1042   -2.5195 
 H                     2.2091   -3.9789    0.5086 
 H                     1.3548   -5.8142   -0.8824 
 H                    -1.2058   -1.4301   -3.7865 
 H                    -2.7277   -5.1007   -3.1863 
 H                    -1.9453   -3.779    -2.3575 
 H                    -3.3632   -2.3887   -3.44 
 H                    -3.9447   -3.6788   -4.4786 
 H                    -0.1371   -0.1146   -7.434 
 H                    -0.3741   -1.8568   -7.4738 
 H                    -2.3862    0.3603   -6.9038 
 H                    -2.5177   -0.9566   -8.0465 
 H                    -3.3673   -0.7765   -5.2589 
 H                    -3.9079   -1.8862   -6.4942 
 H                     2.0914   -3.4871   -5.0164 
 H                     0.8725   -3.4767   -6.283 
 H                     1.7494   -1.274    -6.4857 
 H                     1.7935   -1.0459   -4.7198 
 H                    -1.4      -3.5399   -7.14 
 H                    -2.9357   -4.1758   -6.6613 
 H                    -2.102    -5.7634   -5.3468 
 H                     0.5346   -7.9771   -7.6138 
 H                     1.0875   -8.6984   -6.0885 
 H                     1.8705   -7.2169   -6.6733 
 H                    -1.1228   -7.1557   -3.4871 
 H                     0.3117   -7.2959   -2.4777 
 H                    -1.1147   -6.4097   -1.8844 
 
 Stoichiometry    C45H56N4O5
 Framework group  C1[X(C45H56N4O5)]
 Deg. of freedom   324
 Full point group                 C1      NOp   1
 Largest Abelian subgroup         C1      NOp   1
 Largest concise Abelian subgroup C1      NOp   1
                         Standard orientation:                         
 ---------------------------------------------------------------------
 Center     Atomic      Atomic             Coordinates (Angstroms)
 Number     Number       Type             X           Y           Z
 ---------------------------------------------------------------------
      1          6           0       -1.621944    2.408402    0.455643
      2          6           0       -1.260739    3.558410   -0.260133
      3          6           0       -2.081196    3.990422   -1.323846
      4          6           0       -3.208302    3.258107   -1.720528
      5          6           0       -3.502685    2.075171   -1.065849
      6          6           0       -2.714553    1.672533    0.025219
      7          7           0       -4.524497    1.132280   -1.369911
      8          6           0       -3.272087    0.388804    0.584156
      9          6           0       -3.999504   -0.103413   -0.728280
     10          6           0       -2.325591   -0.716607    1.079040
     11          6           0       -2.925409   -0.779106   -1.690801
     12          6           0       -2.283276   -2.007434   -1.035023
     13          6           0       -2.736226   -2.085060    0.435116
     14          7           0       -2.405090   -0.648728    2.541310
     15          6           0       -1.873003   -1.805771    3.244334
     16          6           0       -2.294001   -3.160822    2.677428
     17          6           0       -2.040440   -3.238207    1.172364
     18          6           0       -4.102634    0.777984    1.829335
     19          6           0       -3.754859   -0.244561    2.903789
     20          6           0       -4.284302   -2.319699    0.382143
     21          6           0       -5.012656   -1.226810   -0.447006
     22          6           0       -6.336071   -0.819175    0.175640
     23          8           0       -6.673979   -1.055017    1.329378
     24          8           0       -7.140230   -0.221265   -0.747859
     25          6           0       -8.391719    0.228886   -0.230958
     26          6           0       -4.994733    1.113920   -2.747608
     27          6           0       -0.021748    4.352060    0.106665
     28          6           0        1.221362    3.539687    0.429802
     29          6           0        1.532662    2.361519   -0.267585
     30          6           0        2.105381    3.998388    1.428189
     31          6           0        3.246274    3.268456    1.782646
     32          6           0        3.499380    2.067087    1.143378
     33          6           0        2.656711    1.637999    0.103364
     34          7           0        4.532418    1.130885    1.422828
     35          6           0        3.200203    0.345689   -0.455175
     36          6           0        4.000108   -0.117289    0.826335
     37          6           0        2.241992   -0.770410   -0.873422
     38          6           0        2.979742   -0.800935    1.838896
     39          6           0        2.349156   -2.059633    1.222515
     40          6           0        2.717760   -2.127670   -0.277242
     41          7           0        2.097776   -0.724897   -2.400173
     42          6           0        2.646112   -1.955333   -3.079153
     43          6           0        2.109504   -3.255549   -2.495801
     44          6           0        1.986606   -3.278047   -0.971679
     45          6           0        3.947199    0.673393   -1.753730
     46          6           0        2.882520    0.498687   -2.823372
     47          6           0        4.275222   -2.321996   -0.303925
     48          6           0        5.018412   -1.229599    0.519659
     49          6           0        6.335113   -0.807132   -0.115484
     50          8           0        6.672287   -1.065621   -1.264323
     51          8           0        7.132964   -0.179478    0.791232
     52          6           0        8.382900    0.267957    0.265926
     53          6           0        5.064730    1.146480    2.779423
     54          8           0        0.779907   -0.581561   -2.752465
     55          1           0       -1.042764    2.070278    1.310672
     56          1           0       -1.833316    4.899463   -1.867794
     57          1           0       -3.809885    3.608546   -2.550821
     58          1           0       -1.285415   -0.495235    0.802493
     59          1           0       -3.393145   -1.087019   -2.634835
     60          1           0       -2.134306   -0.074799   -1.975992
     61          1           0       -2.569815   -2.916284   -1.579069
     62          1           0       -1.191877   -1.935967   -1.110763
     63          1           0       -0.777748   -1.744280    3.199950
     64          1           0       -2.123480   -1.754814    4.310904
     65          1           0       -1.726449   -3.953681    3.178887
     66          1           0       -3.349882   -3.349618    2.899089
     67          1           0       -0.958680   -3.195994    0.994816
     68          1           0       -2.381382   -4.207424    0.789239
     69          1           0       -5.174104    0.859236    1.650095
     70          1           0       -3.802354    1.764082    2.212794
     71          1           0       -3.778648    0.214742    3.897855
     72          1           0       -4.464499   -1.073274    2.912108
     73          1           0       -4.481824   -3.290354   -0.095242
     74          1           0       -4.703685   -2.423447    1.383046
     75          1           0       -5.299742   -1.700452   -1.398496
     76          1           0       -8.238092    0.939086    0.587676
     77          1           0       -8.926099    0.740830   -1.035983
     78          1           0       -8.995723   -0.621514    0.100188
     79          1           0       -4.169846    1.056329   -3.466812
     80          1           0       -5.583450    2.012562   -2.961113
     81          1           0       -5.650607    0.255360   -2.921496
     82          1           0        0.243987    5.028971   -0.715246
     83          1           0       -0.287658    4.979734    0.967029
     84          1           0        0.883218    2.000996   -1.062915
     85          1           0        1.896133    4.928490    1.953221
     86          1           0        3.895767    3.640672    2.566429
     87          1           0        1.226071   -0.556963   -0.509833
     88          1           0        3.485078   -1.078721    2.772602
     89          1           0        2.179545   -0.111344    2.135643
     90          1           0        1.262234   -2.030306    1.366680
     91          1           0        2.704907   -2.954136    1.749333
     92          1           0        2.366198   -1.869654   -4.136659
     93          1           0        3.735132   -1.901619   -3.033024
     94          1           0        1.122300   -3.467056   -2.925826
     95          1           0        2.757634   -4.077400   -2.823643
     96          1           0        0.919115   -3.226880   -0.720923
     97          1           0        2.330440   -4.246837   -0.588639
     98          1           0        4.389466    1.674836   -1.785545
     99          1           0        4.736725   -0.037959   -1.974877
    100          1           0        3.288472    0.333798   -3.825900
    101          1           0        2.181632    1.338175   -2.857133
    102          1           0        4.655464   -2.377049   -1.323148
    103          1           0        4.520934   -3.300339    0.133332
    104          1           0        5.324613   -1.709299    1.462291
    105          1           0        8.992903   -0.585610   -0.045152
    106          1           0        8.912175    0.801649    1.060066
    107          1           0        8.225016    0.958154   -0.568811
    108          1           0        5.719558    0.286770    2.950761
    109          1           0        5.668817    2.045654    2.941509
    110          1           0        4.270899    1.114959    3.534471
 ---------------------------------------------------------------------
 Rotational constants (GHZ):           0.1035929           0.0354945           0.0330274
 Standard basis: STO-3G (5D, 7F)
 There are   326 symmetry adapted cartesian basis functions of A   symmetry.
 There are   326 symmetry adapted basis functions of A   symmetry.
   326 basis functions,   978 primitive gaussians,   326 cartesian basis functions
   197 alpha electrons      197 beta electrons
       nuclear repulsion energy      8316.1768792205 Hartrees.
 NAtoms=  110 NActive=  110 NUniq=  110 SFac= 1.00D+00 NAtFMM=   60 NAOKFM=T Big=T
 Integral buffers will be    131072 words long.
 Raffenetti 1 integral format.
 Two-electron integral symmetry is turned on.
 One-electron integrals computed using PRISM.
 NBasis=   326 RedAO= T EigKep=  1.72D-01  NBF=   326
 NBsUse=   326 1.00D-06 EigRej= -1.00D+00 NBFU=   326
 ExpMin= 1.69D-01 ExpMax= 1.31D+02 ExpMxC= 1.31D+02 IAcc=3 IRadAn=         5 AccDes= 0.00D+00
 Harris functional with IExCor=  205 and IRadAn=       5 diagonalized for initial guess.
 HarFok:  IExCor=  205 AccDes= 0.00D+00 IRadAn=         5 IDoV= 1 UseB2=F ITyADJ=14
 ICtDFT=  3500011 ScaDFX=  1.000000  1.000000  1.000000  1.000000
 FoFCou: FMM=F IPFlag=           0 FMFlag=      100000 FMFlg1=        2001
         NFxFlg=           0 DoJE=T BraDBF=F KetDBF=T FulRan=T
         wScrn=  0.000000 ICntrl=       500 IOpCl=  0 I1Cent=   200000004 NGrid=           0
         NMat0=    1 NMatS0=      1 NMatT0=    0 NMatD0=    1 NMtDS0=    0 NMtDT0=    0
 Petite list used in FoFCou.
 Requested convergence on RMS density matrix=1.00D-08 within 128 cycles.
 Requested convergence on MAX density matrix=1.00D-06.
 Requested convergence on             energy=1.00D-06.
 No special actions if energy rises.
 Integral accuracy reduced to 1.0D-05 until final iterations.
 Initial convergence to 1.0D-05 achieved.  Increase integral accuracy.
 SCF Done:  E(RHF) =  -2300.21823921     A.U. after   16 cycles
            NFock= 16  Conv=0.37D-08     -V/T= 2.0092
 Range of M.O.s used for correlation:     1   326
 NBasis=   326 NAE=   197 NBE=   197 NFC=     0 NFV=     0
 NROrb=    326 NOA=   197 NOB=   197 NVA=   129 NVB=   129
          Differentiating once with respect to magnetic field using GIAOs.
          Electric field/nuclear overlap derivatives assumed to be zero.
 FoFCou: FMM=F IPFlag=           0 FMFlag=      100000 FMFlg1=        2001
         NFxFlg=           0 DoJE=F BraDBF=F KetDBF=T FulRan=T
         wScrn=  0.000000 ICntrl=      6100 IOpCl=  0 I1Cent=           7 NGrid=         110
         NMat0=    1 NMatS0=      1 NMatT0=    0 NMatD0=    1 NMtDS0=    0 NMtDT0=    0
 Symmetry not used in FoFCou.
 FoFJK:  IHMeth= 1 ICntrl=    6127 DoSepK=F KAlg= 0 I1Cent=           0 FoldK=F
 IRaf=         1 NMat=       1 IRICut=       1 DoRegI=T DoRafI=F ISym2E= 0 IDoP0=0 IntGTp=1.
          There are     3 degrees of freedom in the 1st order CPHF.  IDoFFX=0 NUNeed=     3.
      3 vectors produced by pass  0 Test12= 8.47D-13 3.33D-08 XBig12= 1.43D+02 2.44D+00.
 AX will form     3 AO Fock derivatives at one time.
      3 vectors produced by pass  1 Test12= 8.47D-13 3.33D-08 XBig12= 6.44D-01 2.99D-01.
      3 vectors produced by pass  2 Test12= 8.47D-13 3.33D-08 XBig12= 1.87D-02 3.12D-02.
      3 vectors produced by pass  3 Test12= 8.47D-13 3.33D-08 XBig12= 5.61D-04 6.49D-03.
      3 vectors produced by pass  4 Test12= 8.47D-13 3.33D-08 XBig12= 1.67D-05 7.22D-04.
      3 vectors produced by pass  5 Test12= 8.47D-13 3.33D-08 XBig12= 2.62D-07 8.34D-05.
      3 vectors produced by pass  6 Test12= 8.47D-13 3.33D-08 XBig12= 9.64D-09 2.35D-05.
      3 vectors produced by pass  7 Test12= 8.47D-13 3.33D-08 XBig12= 3.23D-10 2.58D-06.
      3 vectors produced by pass  8 Test12= 8.47D-13 3.33D-08 XBig12= 5.78D-12 3.57D-07.
      2 vectors produced by pass  9 Test12= 8.47D-13 3.33D-08 XBig12= 1.02D-13 6.22D-08.
 InvSVY:  IOpt=1 It=  1 EMax= 7.11D-15
 Solved reduced A of dimension    29 with     3 vectors.
 Calculating GIAO nuclear magnetic shielding tensors.
 SCF GIAO Magnetic shielding tensor (ppm):
      1  C    Isotropic =   124.4016   Anisotropy =   155.1283
   XX=   132.3144   YX=   -22.6927   ZX=   -72.1066
   XY=   -20.8192   YY=   136.8715   ZY=    60.8553
   XZ=   -76.3678   YZ=    56.1056   ZZ=   104.0190
   Eigenvalues:    31.4657   113.9187   227.8205
      2  C    Isotropic =   118.9906   Anisotropy =   160.3822
   XX=    99.8386   YX=   -65.4651   ZX=   -48.1967
   XY=   -66.6297   YY=   120.8020   ZY=    40.2508
   XZ=   -59.8379   YZ=    40.0372   ZZ=   136.3312
   Eigenvalues:    39.9778    91.0820   225.9121
      3  C    Isotropic =   118.7731   Anisotropy =   151.4436
   XX=   141.0901   YX=   -51.0104   ZX=   -26.5109
   XY=   -53.7019   YY=    84.3350   ZY=    66.9107
   XZ=   -30.0889   YZ=    73.2712   ZZ=   130.8942
   Eigenvalues:    26.7562   109.8277   219.7355
      4  C    Isotropic =   133.3839   Anisotropy =   143.7950
   XX=   137.7621   YX=   -21.0627   ZX=   -66.3570
   XY=   -24.4254   YY=   144.4189   ZY=    47.2017
   XZ=   -67.7670   YZ=    59.7121   ZZ=   117.9707
   Eigenvalues:    51.2592   119.6453   229.2472
      5  C    Isotropic =   108.1711   Anisotropy =   128.9005
   XX=   100.6774   YX=   -58.3088   ZX=   -47.8012
   XY=   -47.8406   YY=   105.4485   ZY=    23.2274
   XZ=   -56.4687   YZ=    21.9949   ZZ=   118.3874
   Eigenvalues:    40.8780    89.5305   194.1047
      6  C    Isotropic =   117.2202   Anisotropy =   142.1170
   XX=   128.3760   YX=   -36.6079   ZX=   -47.8722
   XY=   -39.6259   YY=    90.5115   ZY=    58.9882
   XZ=   -36.8275   YZ=    57.4191   ZZ=   132.7731
   Eigenvalues:    48.8357    90.8601   211.9649
      7  N    Isotropic =   272.6890   Anisotropy =    80.0223
   XX=   267.4474   YX=    24.6171   ZX=    16.0882
   XY=    28.5905   YY=   309.9658   ZY=    21.2707
   XZ=     0.1915   YZ=     8.0139   ZZ=   240.6539
   Eigenvalues:   237.3240   254.7059   326.0373
      8  C    Isotropic =   196.0934   Anisotropy =    13.7170
   XX=   200.9125   YX=    -2.8391   ZX=    -0.1883
   XY=    -5.6092   YY=   188.0024   ZY=    -2.7634
   XZ=     5.7685   YZ=    -6.4025   ZZ=   199.3652
   Eigenvalues:   185.7237   197.3183   205.2381
      9  C    Isotropic =   180.8163   Anisotropy =    45.0952
   XX=   173.9236   YX=   -13.8384   ZX=    18.5965
   XY=     2.7862   YY=   193.3511   ZY=   -21.1933
   XZ=    21.8284   YZ=   -13.3440   ZZ=   175.1744
   Eigenvalues:   152.4558   179.1134   210.8798
     10  C    Isotropic =   189.7890   Anisotropy =    27.8163
   XX=   177.7892   YX=    -5.3854   ZX=    -0.0223
   XY=    -5.3330   YY=   184.2566   ZY=    -3.2607
   XZ=    -5.3549   YZ=    -6.1541   ZZ=   207.3211
   Eigenvalues:   174.0995   186.9342   208.3332
     11  C    Isotropic =   213.5619   Anisotropy =    20.9106
   XX=   216.4368   YX=    -6.8776   ZX=   -10.7490
   XY=   -10.3434   YY=   210.4681   ZY=     3.3639
   XZ=    -4.7478   YZ=     3.0956   ZZ=   213.7808
   Eigenvalues:   203.7988   209.3846   227.5023
     12  C    Isotropic =   213.0066   Anisotropy =    19.1556
   XX=   210.0705   YX=    -1.6791   ZX=    -3.9647
   XY=    -0.7316   YY=   205.2482   ZY=    -4.8555
   XZ=    -5.3898   YZ=    -3.3345   ZZ=   223.7012
   Eigenvalues:   203.5588   209.6841   225.7770
     13  C    Isotropic =   213.7343   Anisotropy =    10.3361
   XX=   219.3544   YX=    -3.5414   ZX=    -3.5206
   XY=    -1.7310   YY=   214.3187   ZY=    -1.5110
   XZ=    -0.1997   YZ=    -0.3123   ZZ=   207.5299
   Eigenvalues:   206.9966   213.5813   220.6251
     14  N    Isotropic =   303.1707   Anisotropy =    54.9965
   XX=   307.1553   YX=   -46.4485   ZX=   -11.3664
   XY=   -28.9286   YY=   267.3354   ZY=   -10.5305
   XZ=   -13.6072   YZ=   -20.4905   ZZ=   335.0215
   Eigenvalues:   240.4992   329.1779   339.8351
     15  C    Isotropic =   205.4773   Anisotropy =    32.6695
   XX=   198.9922   YX=    -7.5586   ZX=     9.5610
   XY=   -10.3378   YY=   214.2561   ZY=    -9.9262
   XZ=    12.6262   YZ=   -11.3697   ZZ=   203.1835
   Eigenvalues:   189.7975   199.3774   227.2570
     16  C    Isotropic =   224.2911   Anisotropy =     7.4692
   XX=   220.7394   YX=    -1.8528   ZX=     3.3607
   XY=     2.4354   YY=   223.2047   ZY=     0.5299
   XZ=    -0.1467   YZ=     0.3277   ZZ=   228.9293
   Eigenvalues:   220.4199   223.1828   229.2706
     17  C    Isotropic =   215.2856   Anisotropy =    17.9330
   XX=   214.4434   YX=    -2.8438   ZX=     3.9875
   XY=    -7.2379   YY=   214.8057   ZY=    -9.7397
   XZ=     3.7710   YZ=    -7.0865   ZZ=   216.6079
   Eigenvalues:   206.9873   211.6287   227.2410
     18  C    Isotropic =   210.9652   Anisotropy =    36.6040
   XX=   198.5382   YX=    -3.0668   ZX=   -18.9499
   XY=    -7.7350   YY=   206.2242   ZY=    -4.0855
   XZ=   -13.2903   YZ=    -5.1479   ZZ=   228.1332
   Eigenvalues:   188.7865   208.7412   235.3679
     19  C    Isotropic =   199.7702   Anisotropy =    43.9236
   XX=   215.0956   YX=   -23.9779   ZX=   -12.0578
   XY=   -21.5455   YY=   188.2265   ZY=    -5.7625
   XZ=    -6.2081   YZ=    -3.9901   ZZ=   195.9884
   Eigenvalues:   171.9606   198.2973   229.0526
     20  C    Isotropic =   212.1548   Anisotropy =    22.9819
   XX=   226.3086   YX=    -2.4681   ZX=     3.6989
   XY=    -3.3546   YY=   211.4528   ZY=    -4.2741
   XZ=     3.5334   YZ=    -2.5119   ZZ=   198.7032
   Eigenvalues:   197.5737   211.4147   227.4761
     21  C    Isotropic =   208.8931   Anisotropy =    12.0554
   XX=   215.4755   YX=    -1.9960   ZX=    -1.5969
   XY=     3.5483   YY=   211.5175   ZY=    -0.6352
   XZ=    -8.2066   YZ=     2.0595   ZZ=   199.6864
   Eigenvalues:   198.2277   211.5217   216.9300
     22  C    Isotropic =    95.9648   Anisotropy =    98.5330
   XX=    15.3500   YX=    69.1088   ZX=   -23.8250
   XY=    74.5624   YY=   123.5349   ZY=     7.9944
   XZ=   -44.3341   YZ=    18.1517   ZZ=   149.0094
   Eigenvalues:   -27.9439   154.1848   161.6534
     23  O    Isotropic =  -133.3694   Anisotropy =   885.1989
   XX=  -198.4001   YX=   230.1535   ZX=   137.4750
   XY=   228.7103   YY=   280.9288   ZY=   254.4121
   XZ=   116.6148   YZ=   247.7101   ZZ=  -482.6370
   Eigenvalues:  -568.2522  -288.6192   456.7632
     24  O    Isotropic =   284.1063   Anisotropy =   139.4298
   XX=   220.9046   YX=    49.4938   ZX=    60.9141
   XY=    -6.9467   YY=   355.9615   ZY=     5.1887
   XZ=   183.2928   YZ=   -59.5817   ZZ=   275.4528
   Eigenvalues:   118.3088   356.9507   377.0595
     25  C    Isotropic =   197.3998   Anisotropy =    57.9675
   XX=   225.8449   YX=   -16.2897   ZX=   -14.5610
   XY=   -16.4239   YY=   183.9485   ZY=     6.0969
   XZ=   -14.6374   YZ=     5.2833   ZZ=   182.4059
   Eigenvalues:   177.4268   178.7277   236.0448
     26  C    Isotropic =   209.6284   Anisotropy =    41.1565
   XX=   205.8302   YX=     0.8951   ZX=    13.7012
   XY=    -1.5921   YY=   192.3281   ZY=    -1.4775
   XZ=    14.3014   YZ=    -1.5697   ZZ=   230.7269
   Eigenvalues:   192.2628   199.5564   237.0661
     27  C    Isotropic =   206.3769   Anisotropy =    22.4676
   XX=   216.5887   YX=     0.5589   ZX=     8.8578
   XY=    -0.1872   YY=   208.1925   ZY=    -0.1346
   XZ=    13.8265   YZ=     0.1884   ZZ=   194.3494
   Eigenvalues:   189.5852   208.1901   221.3553
     28  C    Isotropic =   117.2007   Anisotropy =   161.9970
   XX=    94.1173   YX=    62.4469   ZX=   -48.6156
   XY=    62.5198   YY=   113.5898   ZY=   -43.4151
   XZ=   -59.3545   YZ=   -44.1636   ZZ=   143.8949
   Eigenvalues:    38.3498    88.0535   225.1987
     29  C    Isotropic =   123.5583   Anisotropy =   155.8214
   XX=   119.3196   YX=    19.0437   ZX=   -72.4435
   XY=    14.1693   YY=   132.5077   ZY=   -61.1929
   XZ=   -80.0524   YZ=   -57.7130   ZZ=   118.8475
   Eigenvalues:    31.7321   111.5035   227.4392
     30  C    Isotropic =   117.7596   Anisotropy =   153.7717
   XX=   137.9204   YX=    44.8462   ZX=   -30.2771
   XY=    50.5245   YY=    76.0726   ZY=   -68.3479
   XZ=   -33.8442   YZ=   -73.2665   ZZ=   139.2857
   Eigenvalues:    24.8208   108.1838   220.2740
     31  C    Isotropic =   133.5976   Anisotropy =   143.2203
   XX=   130.2509   YX=    15.3755   ZX=   -67.8105
   XY=    18.9325   YY=   140.8177   ZY=   -49.2194
   XZ=   -68.6002   YZ=   -60.6502   ZZ=   129.7243
   Eigenvalues:    51.7126   120.0025   229.0778
     32  C    Isotropic =   108.5900   Anisotropy =   127.6556
   XX=    95.0402   YX=    57.9167   ZX=   -46.9761
   XY=    44.1025   YY=   105.5950   ZY=   -24.0730
   XZ=   -54.3992   YZ=   -25.9649   ZZ=   125.1348
   Eigenvalues:    41.5774    90.4988   193.6938
     33  C    Isotropic =   120.9180   Anisotropy =   135.8693
   XX=   131.2489   YX=    31.5805   ZX=   -42.7534
   XY=    40.3176   YY=    89.6170   ZY=   -58.0386
   XZ=   -32.5047   YZ=   -56.5270   ZZ=   141.8882
   Eigenvalues:    51.1493   100.1072   211.4976
     34  N    Isotropic =   273.7379   Anisotropy =    80.2263
   XX=   269.1075   YX=   -26.0656   ZX=    16.5117
   XY=   -30.1967   YY=   309.2591   ZY=   -21.8179
   XZ=     1.1841   YZ=    -7.6065   ZZ=   242.8471
   Eigenvalues:   239.2888   254.7027   327.2221
     35  C    Isotropic =   197.4468   Anisotropy =    14.9909
   XX=   200.4612   YX=     0.7100   ZX=     2.0915
   XY=     3.3597   YY=   191.3449   ZY=    -0.4700
   XZ=    11.5893   YZ=     0.0239   ZZ=   200.5343
   Eigenvalues:   190.4501   194.4495   207.4407
     36  C    Isotropic =   180.6612   Anisotropy =    44.4406
   XX=   174.5411   YX=    14.0313   ZX=    19.1626
   XY=    -2.7301   YY=   193.5403   ZY=    20.9140
   XZ=    22.0200   YZ=    12.0141   ZZ=   173.9021
   Eigenvalues:   151.9487   179.7466   210.2882
     37  C    Isotropic =   175.3823   Anisotropy =    54.6622
   XX=   168.0579   YX=     6.2602   ZX=     2.6435
   XY=     3.1145   YY=   146.3987   ZY=     1.8788
   XZ=     1.8900   YZ=    -0.3277   ZZ=   211.6904
   Eigenvalues:   145.4265   168.8968   211.8238
     38  C    Isotropic =   213.4219   Anisotropy =    19.9428
   XX=   214.9495   YX=     6.6187   ZX=   -10.0797
   XY=    10.4853   YY=   210.8166   ZY=    -3.6014
   XZ=    -4.2584   YZ=    -3.4177   ZZ=   214.4997
   Eigenvalues:   203.7054   209.8432   226.7172
     39  C    Isotropic =   212.0502   Anisotropy =    19.9772
   XX=   208.8715   YX=     2.7203   ZX=    -2.8105
   XY=     1.9125   YY=   203.1450   ZY=     4.8486
   XZ=    -4.3772   YZ=     2.4474   ZZ=   224.1343
   Eigenvalues:   201.3569   209.4254   225.3684
     40  C    Isotropic =   211.1443   Anisotropy =     8.4974
   XX=   212.2104   YX=     3.3036   ZX=    -0.2092
   XY=     3.5125   YY=   214.2619   ZY=     1.2059
   XZ=    -0.3589   YZ=     0.1415   ZZ=   206.9607
   Eigenvalues:   206.8086   209.8151   216.8092
     41  N    Isotropic =   227.6303   Anisotropy =    56.8097
   XX=   257.1658   YX=    13.1296   ZX=    18.5827
   XY=    14.3937   YY=   195.0658   ZY=   -16.0213
   XZ=    14.1583   YZ=   -15.3100   ZZ=   230.6594
   Eigenvalues:   184.2398   233.1476   265.5034
     42  C    Isotropic =   196.8407   Anisotropy =    47.4193
   XX=   180.3482   YX=   -11.5725   ZX=   -11.3147
   XY=   -16.9941   YY=   214.9670   ZY=    12.9177
   XZ=   -10.6353   YZ=    14.2835   ZZ=   195.2069
   Eigenvalues:   173.1903   188.8782   228.4536
     43  C    Isotropic =   221.8328   Anisotropy =    10.7465
   XX=   212.4619   YX=     5.2197   ZX=    -3.1788
   XY=     5.7185   YY=   224.6111   ZY=     1.9195
   XZ=    -2.9244   YZ=     0.3959   ZZ=   228.4254
   Eigenvalues:   209.7910   226.7103   228.9971
     44  C    Isotropic =   217.9391   Anisotropy =    19.1288
   XX=   216.4460   YX=     4.4578   ZX=     3.1193
   XY=     9.2071   YY=   217.8973   ZY=     8.7908
   XZ=     4.3766   YZ=     7.3501   ZZ=   219.4740
   Eigenvalues:   209.0760   214.0497   230.6917
     45  C    Isotropic =   214.1402   Anisotropy =    28.5105
   XX=   211.5538   YX=    17.8677   ZX=    -0.6027
   XY=     8.4869   YY=   200.3200   ZY=    -8.2095
   XZ=    -4.7551   YZ=    -3.5162   ZZ=   230.5468
   Eigenvalues:   191.3072   217.9661   233.1472
     46  C    Isotropic =   187.1666   Anisotropy =    61.6656
   XX=   186.2482   YX=    29.8346   ZX=     1.2826
   XY=    24.1875   YY=   204.4423   ZY=   -21.5785
   XZ=    -8.7907   YZ=   -12.0640   ZZ=   170.8092
   Eigenvalues:   160.0902   173.1326   228.2769
     47  C    Isotropic =   212.1858   Anisotropy =    25.1917
   XX=   228.0045   YX=     2.8626   ZX=     2.9461
   XY=     3.4571   YY=   209.6236   ZY=     5.0567
   XZ=     2.8508   YZ=     4.1449   ZZ=   198.9292
   Eigenvalues:   197.1343   210.4427   228.9803
     48  C    Isotropic =   208.5466   Anisotropy =    12.2562
   XX=   214.8438   YX=     1.8834   ZX=    -2.4290
   XY=    -3.2351   YY=   210.7385   ZY=     0.8004
   XZ=    -8.6351   YZ=    -2.0552   ZZ=   200.0575
   Eigenvalues:   198.1649   210.7575   216.7174
     49  C    Isotropic =    96.0435   Anisotropy =    98.0648
   XX=    16.6990   YX=   -71.5048   ZX=   -20.4720
   XY=   -76.9087   YY=   120.5347   ZY=    -7.5251
   XZ=   -39.9556   YZ=   -16.5453   ZZ=   150.8969
   Eigenvalues:   -27.8090   154.5196   161.4200
     50  O    Isotropic =  -131.1509   Anisotropy =   881.3008
   XX=  -192.0779   YX=  -232.4455   ZX=   149.5797
   XY=  -236.4914   YY=   265.7286   ZY=  -258.4519
   XZ=   121.8695   YZ=  -259.0843   ZZ=  -467.1035
   Eigenvalues:  -560.9522  -288.8835   456.3829
     51  O    Isotropic =   282.6760   Anisotropy =   138.7486
   XX=   218.9604   YX=   -51.0098   ZX=    62.7079
   XY=     6.5620   YY=   356.1912   ZY=    -6.0307
   XZ=   183.3819   YZ=    59.4938   ZZ=   272.8766
   Eigenvalues:   115.1353   357.7177   375.1751
     52  C    Isotropic =   197.1790   Anisotropy =    58.4252
   XX=   225.6146   YX=    16.3167   ZX=   -15.0454
   XY=    16.4694   YY=   183.6835   ZY=    -6.1343
   XZ=   -15.2191   YZ=    -5.4486   ZZ=   182.2389
   Eigenvalues:   177.0848   178.3230   236.1291
     53  C    Isotropic =   209.3659   Anisotropy =    41.6596
   XX=   206.6869   YX=    -0.7145   ZX=    14.9102
   XY=     1.8220   YY=   192.0135   ZY=     2.4931
   XZ=    15.4243   YZ=     2.7686   ZZ=   229.3974
   Eigenvalues:   191.8001   199.1588   237.1390
     54  O    Isotropic =    31.7860   Anisotropy =   453.1033
   XX=   293.7050   YX=   -56.8209   ZX=   117.1394
   XY=   -56.2089   YY=  -137.2208   ZY=   -12.8130
   XZ=   109.0855   YZ=   -14.4640   ZZ=   -61.1263
   Eigenvalues:  -144.5257   -93.9713   333.8548
     55  H    Isotropic =    26.4109   Anisotropy =    14.8049
   XX=    30.3195   YX=     5.6231   ZX=     0.1074
   XY=     7.7413   YY=    28.4380   ZY=    -0.7553
   XZ=    -2.3956   YZ=    -1.3698   ZZ=    20.4754
   Eigenvalues:    20.3202    22.6318    36.2809
     56  H    Isotropic =    25.6697   Anisotropy =     6.0049
   XX=    26.4738   YX=     0.8758   ZX=     3.9718
   XY=     0.8738   YY=    26.2212   ZY=    -2.0380
   XZ=     4.0998   YZ=    -2.0234   ZZ=    24.3141
   Eigenvalues:    20.4198    26.9163    29.6729
     57  H    Isotropic =    26.4407   Anisotropy =     7.8539
   XX=    25.9329   YX=     2.6815   ZX=     2.9475
   XY=     2.1622   YY=    29.8183   ZY=    -3.8726
   XZ=     2.5144   YZ=    -3.2048   ZZ=    23.5709
   Eigenvalues:    19.9194    27.7260    31.6766
     58  H    Isotropic =    31.6544   Anisotropy =    15.0532
   XX=    40.5016   YX=     2.5204   ZX=    -0.9464
   XY=     3.3547   YY=    28.4868   ZY=    -1.6984
   XZ=    -4.1739   YZ=    -1.2123   ZZ=    25.9748
   Eigenvalues:    25.2047    28.0687    41.6899
     59  H    Isotropic =    32.1237   Anisotropy =    12.4372
   XX=    28.7221   YX=    -3.2688   ZX=     3.2301
   XY=    -1.6974   YY=    28.6951   ZY=     2.5564
   XZ=     4.0614   YZ=     2.8045   ZZ=    38.9538
   Eigenvalues:    24.8048    31.1511    40.4151
     60  H    Isotropic =    32.5052   Anisotropy =     9.6062
   XX=    36.0000   YX=    -0.0782   ZX=    -5.3680
   XY=     2.6292   YY=    32.7140   ZY=    -2.9069
   XZ=    -3.8983   YZ=    -0.8748   ZZ=    28.8016
   Eigenvalues:    26.3206    32.2857    38.9093
     61  H    Isotropic =    32.3438   Anisotropy =    13.1546
   XX=    28.5226   YX=    -0.4125   ZX=     0.3051
   XY=    -0.4774   YY=    35.7351   ZY=     6.6269
   XZ=     0.2095   YZ=     6.7622   ZZ=    32.7737
   Eigenvalues:    27.2212    28.6967    41.1135
     62  H    Isotropic =    31.9970   Anisotropy =    19.8851
   XX=    44.0241   YX=    -2.3593   ZX=    -4.2844
   XY=    -1.7087   YY=    25.5492   ZY=    -0.5173
   XZ=    -4.5313   YZ=     0.0193   ZZ=    26.4177
   Eigenvalues:    24.6617    26.0755    45.2537
     63  H    Isotropic =    32.0894   Anisotropy =    14.7335
   XX=    41.2905   YX=     1.0969   ZX=     2.9094
   XY=    -0.0889   YY=    26.5728   ZY=    -1.3817
   XZ=     2.8686   YZ=    -1.2213   ZZ=    28.4051
   Eigenvalues:    25.6718    28.6847    41.9118
     64  H    Isotropic =    31.9394   Anisotropy =    15.4399
   XX=    26.3960   YX=    -0.9286   ZX=    -0.0487
   XY=    -1.1045   YY=    27.2679   ZY=    -1.3958
   XZ=     0.2087   YZ=    -0.7506   ZZ=    42.1542
   Eigenvalues:    25.7088    27.8767    42.2326
     65  H    Isotropic =    32.7481   Anisotropy =    16.7351
   XX=    29.0637   YX=    -4.6944   ZX=     2.9593
   XY=    -4.2012   YY=    36.7413   ZY=    -7.0751
   XZ=     2.5274   YZ=    -7.2673   ZZ=    32.4394
   Eigenvalues:    26.7359    27.6036    43.9048
     66  H    Isotropic =    32.5541   Anisotropy =    12.7796
   XX=    36.5116   YX=     3.9910   ZX=    -3.7286
   XY=     3.8014   YY=    30.5271   ZY=    -4.1580
   XZ=    -3.6996   YZ=    -4.1429   ZZ=    30.6238
   Eigenvalues:    26.4208    30.1677    41.0739
     67  H    Isotropic =    32.7237   Anisotropy =    16.1698
   XX=    42.2640   YX=    -2.9920   ZX=    -3.3968
   XY=    -2.8067   YY=    27.8435   ZY=    -1.2176
   XZ=    -3.6386   YZ=    -1.3174   ZZ=    28.0635
   Eigenvalues:    25.4607    29.2068    43.5035
     68  H    Isotropic =    32.4747   Anisotropy =    13.5631
   XX=    27.7582   YX=     1.3042   ZX=     1.1171
   XY=     0.7493   YY=    40.9326   ZY=     2.5155
   XZ=     0.7642   YZ=     2.4260   ZZ=    28.7334
   Eigenvalues:    27.1706    28.7369    41.5168
     69  H    Isotropic =    32.9202   Anisotropy =    12.2670
   XX=    40.6686   YX=    -2.4887   ZX=    -0.0965
   XY=    -2.2327   YY=    27.6854   ZY=     2.4415
   XZ=    -0.1012   YZ=     0.8027   ZZ=    30.4065
   Eigenvalues:    26.6099    31.0525    41.0982
     70  H    Isotropic =    32.4096   Anisotropy =    11.6059
   XX=    26.9312   YX=     1.4105   ZX=    -2.8101
   XY=     0.6566   YY=    37.9816   ZY=     5.7308
   XZ=    -2.2147   YZ=     2.4922   ZZ=    32.3160
   Eigenvalues:    25.3913    31.6906    40.1469
     71  H    Isotropic =    31.9564   Anisotropy =    16.3213
   XX=    27.3812   YX=    -2.8796   ZX=    -4.1562
   XY=    -1.7227   YY=    27.9211   ZY=     4.6391
   XZ=    -2.7574   YZ=     3.6739   ZZ=    40.5669
   Eigenvalues:    25.3306    27.7013    42.8372
     72  H    Isotropic =    31.9686   Anisotropy =    10.2843
   XX=    35.0982   YX=     3.3881   ZX=    -3.7247
   XY=     3.3671   YY=    30.0194   ZY=    -1.0965
   XZ=    -3.5860   YZ=    -2.3906   ZZ=    30.7882
   Eigenvalues:    28.3230    28.7579    38.8248
     73  H    Isotropic =    32.2125   Anisotropy =    14.3088
   XX=    30.5809   YX=     4.3393   ZX=     3.0906
   XY=     3.5160   YY=    39.3358   ZY=     2.7014
   XZ=     2.8781   YZ=     2.8764   ZZ=    26.7209
   Eigenvalues:    25.0673    29.8186    41.7518
     74  H    Isotropic =    31.4159   Anisotropy =    10.3483
   XX=    33.2581   YX=     2.3777   ZX=    -3.6412
   XY=     1.2392   YY=    27.2420   ZY=    -3.6187
   XZ=    -3.2091   YZ=    -3.6121   ZZ=    33.7476
   Eigenvalues:    25.6206    30.3123    38.3148
     75  H    Isotropic =    31.1428   Anisotropy =    12.2579
   XX=    31.5967   YX=     1.8550   ZX=     5.6677
   XY=     1.5880   YY=    28.9593   ZY=     4.4703
   XZ=     5.5297   YZ=     2.7774   ZZ=    32.8723
   Eigenvalues:    25.9000    28.2136    39.3147
     76  H    Isotropic =    30.6252   Anisotropy =     8.0844
   XX=    31.6155   YX=    -1.8416   ZX=    -0.9690
   XY=    -2.6604   YY=    30.2238   ZY=     4.1440
   XZ=    -1.6664   YZ=     4.6869   ZZ=    30.0365
   Eigenvalues:    25.6374    30.2234    36.0149
     77  H    Isotropic =    30.5225   Anisotropy =    12.2562
   XX=    34.3802   YX=    -3.8364   ZX=     4.2405
   XY=    -3.8698   YY=    27.7336   ZY=    -3.5040
   XZ=     3.2606   YZ=    -3.2026   ZZ=    29.4537
   Eigenvalues:    25.0274    27.8468    38.6933
     78  H    Isotropic =    30.5640   Anisotropy =    11.8687
   XX=    36.1162   YX=     3.7699   ZX=    -1.6562
   XY=     4.1125   YY=    29.1744   ZY=    -1.6490
   XZ=    -2.3672   YZ=    -2.2514   ZZ=    26.4013
   Eigenvalues:    25.3949    27.8205    38.4764
     79  H    Isotropic =    31.7233   Anisotropy =    10.5473
   XX=    29.9686   YX=    -1.3611   ZX=    -2.7994
   XY=    -0.0163   YY=    27.0301   ZY=    -1.3925
   XZ=    -1.1747   YZ=    -1.4227   ZZ=    38.1712
   Eigenvalues:    26.5759    29.8391    38.7548
     80  H    Isotropic =    30.7128   Anisotropy =    15.0453
   XX=    31.2115   YX=    -4.6226   ZX=     4.9753
   XY=    -4.2516   YY=    32.0827   ZY=    -5.3302
   XZ=     5.5463   YZ=    -5.1757   ZZ=    28.8442
   Eigenvalues:    24.1770    27.2184    40.7430
     81  H    Isotropic =    30.8565   Anisotropy =    10.8744
   XX=    32.0394   YX=     4.1242   ZX=     4.7497
   XY=     4.4488   YY=    29.2228   ZY=    -0.3890
   XZ=     5.8225   YZ=     0.0852   ZZ=    31.3073
   Eigenvalues:    24.2220    30.2414    38.1061
     82  H    Isotropic =    30.0504   Anisotropy =    11.8959
   XX=    28.0437   YX=     3.0064   ZX=     0.8650
   XY=    -0.3506   YY=    33.1625   ZY=    -6.0723
   XZ=     2.6360   YZ=    -7.1243   ZZ=    28.9451
   Eigenvalues:    23.1421    29.0282    37.9810
     83  H    Isotropic =    29.9665   Anisotropy =    11.9214
   XX=    28.0841   YX=    -2.7360   ZX=     0.6246
   XY=     0.6001   YY=    32.3495   ZY=     6.4243
   XZ=     2.1780   YZ=     7.2880   ZZ=    29.4660
   Eigenvalues:    23.2589    28.7266    37.9141
     84  H    Isotropic =    26.2352   Anisotropy =    15.6861
   XX=    30.8058   YX=    -5.7240   ZX=    -0.2272
   XY=    -7.9155   YY=    27.8380   ZY=     1.6366
   XZ=    -3.1484   YZ=     2.3025   ZZ=    20.0617
   Eigenvalues:    19.5907    22.4222    36.6926
     85  H    Isotropic =    25.5086   Anisotropy =     6.2433
   XX=    26.7520   YX=    -0.7250   ZX=     4.0369
   XY=    -0.8777   YY=    25.9688   ZY=     2.0603
   XZ=     4.0575   YZ=     2.0426   ZZ=    23.8049
   Eigenvalues:    20.1766    26.6783    29.6708
     86  H    Isotropic =    26.4003   Anisotropy =     7.9410
   XX=    26.0348   YX=    -2.4812   ZX=     3.0290
   XY=    -2.0678   YY=    29.9766   ZY=     3.8137
   XZ=     2.5133   YZ=     3.2069   ZZ=    23.1895
   Eigenvalues:    19.7819    27.7247    31.6942
     87  H    Isotropic =    30.7991   Anisotropy =    12.8932
   XX=    38.6512   YX=    -1.4617   ZX=    -0.2411
   XY=    -2.3667   YY=    27.9052   ZY=     0.6455
   XZ=    -4.4219   YZ=     0.1424   ZZ=    25.8408
   Eigenvalues:    25.4283    27.5744    39.3945
     88  H    Isotropic =    32.0481   Anisotropy =    12.8315
   XX=    28.5031   YX=     3.2111   ZX=     3.7933
   XY=     1.5993   YY=    28.7271   ZY=    -2.4182
   XZ=     4.4782   YZ=    -2.7649   ZZ=    38.9141
   Eigenvalues:    24.5942    30.9477    40.6024
     89  H    Isotropic =    32.6883   Anisotropy =     8.6298
   XX=    35.1734   YX=    -0.0036   ZX=    -5.0082
   XY=    -2.6005   YY=    32.9730   ZY=     2.6590
   XZ=    -4.0160   YZ=     0.4841   ZZ=    29.9185
   Eigenvalues:    27.2302    32.3932    38.4415
     90  H    Isotropic =    32.2708   Anisotropy =    18.8097
   XX=    43.0506   YX=     3.2635   ZX=    -4.4433
   XY=     2.2571   YY=    26.0499   ZY=     0.1229
   XZ=    -5.1060   YZ=    -0.6163   ZZ=    27.7120
   Eigenvalues:    25.3797    26.6222    44.8106
     91  H    Isotropic =    32.1597   Anisotropy =    13.5219
   XX=    28.1006   YX=    -0.1929   ZX=     1.0214
   XY=    -0.1964   YY=    35.6218   ZY=    -6.6300
   XZ=     0.7975   YZ=    -6.9610   ZZ=    32.7568
   Eigenvalues:    26.9411    28.3638    41.1743
     92  H    Isotropic =    30.9845   Anisotropy =    14.1806
   XX=    24.8103   YX=     0.0030   ZX=    -0.2155
   XY=     0.6238   YY=    27.9526   ZY=     1.9193
   XZ=     1.2118   YZ=     1.4613   ZZ=    40.1907
   Eigenvalues:    24.7718    27.7435    40.4382
     93  H    Isotropic =    31.8399   Anisotropy =     8.9749
   XX=    35.7442   YX=    -0.7600   ZX=    -2.9927
   XY=    -1.7795   YY=    29.1066   ZY=     2.4347
   XZ=    -3.1505   YZ=     2.9291   ZZ=    30.6687
   Eigenvalues:    26.9954    30.7010    37.8231
     94  H    Isotropic =    31.3373   Anisotropy =    14.3701
   XX=    35.2803   YX=     4.4655   ZX=     4.6531
   XY=     4.9892   YY=    28.0892   ZY=     3.7077
   XZ=     4.5431   YZ=     3.7893   ZZ=    30.6423
   Eigenvalues:    25.1334    27.9610    40.9174
     95  H    Isotropic =    32.2431   Anisotropy =    16.9155
   XX=    28.3575   YX=    -5.4975   ZX=    -3.3118
   XY=    -4.5517   YY=    37.7816   ZY=     5.8004
   XZ=    -3.2423   YZ=     6.1395   ZZ=    30.5903
   Eigenvalues:    25.8982    27.3110    43.5202
     96  H    Isotropic =    32.0449   Anisotropy =    16.9258
   XX=    41.9607   YX=     2.8549   ZX=    -3.7613
   XY=     2.7391   YY=    26.6489   ZY=     1.5055
   XZ=    -4.2251   YZ=     1.3368   ZZ=    27.5250
   Eigenvalues:    24.3465    28.4593    43.3287
     97  H    Isotropic =    32.3224   Anisotropy =    13.8742
   XX=    27.2326   YX=    -1.5455   ZX=     1.1427
   XY=    -0.8067   YY=    40.9493   ZY=    -2.4016
   XZ=     0.8800   YZ=    -2.6053   ZZ=    28.7851
   Eigenvalues:    26.7338    28.6615    41.5718
     98  H    Isotropic =    32.9330   Anisotropy =    12.7339
   XX=    32.5896   YX=     5.7422   ZX=    -2.3787
   XY=     6.5302   YY=    35.5526   ZY=    -3.2672
   XZ=    -2.9038   YZ=    -1.0701   ZZ=    30.6568
   Eigenvalues:    27.5213    29.8554    41.4223
     99  H    Isotropic =    32.6583   Anisotropy =    11.5318
   XX=    38.2167   YX=    -3.3633   ZX=    -2.1617
   XY=    -5.6386   YY=    28.2482   ZY=    -1.2119
   XZ=    -1.7689   YZ=     1.4231   ZZ=    31.5099
   Eigenvalues:    26.4400    31.1886    40.3461
    100  H    Isotropic =    31.3622   Anisotropy =    13.8478
   XX=    27.2508   YX=     1.6226   ZX=    -4.5501
   XY=     1.5491   YY=    27.8831   ZY=    -3.3250
   XZ=    -2.8937   YZ=    -1.2874   ZZ=    38.9526
   Eigenvalues:    25.7088    27.7837    40.5941
    101  H    Isotropic =    30.7218   Anisotropy =    10.7962
   XX=    28.8792   YX=    -3.9668   ZX=     0.5889
   XY=    -6.6269   YY=    33.2466   ZY=    -3.9629
   XZ=     1.6899   YZ=    -1.6701   ZZ=    30.0395
   Eigenvalues:    25.2384    29.0077    37.9193
    102  H    Isotropic =    31.5528   Anisotropy =    10.1084
   XX=    33.4537   YX=    -2.0065   ZX=    -3.2217
   XY=    -1.1708   YY=    26.7129   ZY=     3.4259
   XZ=    -2.9053   YZ=     3.6325   ZZ=    34.4919
   Eigenvalues:    25.3299    31.0367    38.2918
    103  H    Isotropic =    32.0738   Anisotropy =    14.5281
   XX=    30.9097   YX=    -4.8979   ZX=     3.0100
   XY=    -3.8576   YY=    39.2270   ZY=    -2.1312
   XZ=     2.6280   YZ=    -2.3591   ZZ=    26.0845
   Eigenvalues:    24.7828    29.6793    41.7592
    104  H    Isotropic =    31.1534   Anisotropy =    12.2143
   XX=    31.8930   YX=    -1.9484   ZX=     5.7358
   XY=    -1.6754   YY=    29.0758   ZY=    -4.4046
   XZ=     5.4777   YZ=    -2.8543   ZZ=    32.4915
   Eigenvalues:    25.8620    28.3020    39.2963
    105  H    Isotropic =    30.5399   Anisotropy =    11.8861
   XX=    36.1131   YX=    -3.7672   ZX=    -1.6670
   XY=    -4.1221   YY=    29.2157   ZY=     1.5801
   XZ=    -2.3571   YZ=     2.1518   ZZ=    26.2910
   Eigenvalues:    25.3816    27.7742    38.4640
    106  H    Isotropic =    30.4730   Anisotropy =    12.1289
   XX=    34.2865   YX=     3.9604   ZX=     4.0443
   XY=     3.9496   YY=    27.9031   ZY=     3.5644
   XZ=     3.0422   YZ=     3.2479   ZZ=    29.2293
   Eigenvalues:    24.9781    27.8819    38.5589
    107  H    Isotropic =    30.6021   Anisotropy =     8.1666
   XX=    31.4634   YX=     1.7657   ZX=    -1.0979
   XY=     2.5761   YY=    30.0901   ZY=    -4.1670
   XZ=    -1.8045   YZ=    -4.7124   ZZ=    30.2528
   Eigenvalues:    25.6750    30.0849    36.0465
    108  H    Isotropic =    30.8232   Anisotropy =    10.8063
   XX=    32.2634   YX=    -4.0011   ZX=     4.8052
   XY=    -4.3034   YY=    29.2124   ZY=     0.5123
   XZ=     5.8070   YZ=     0.0570   ZZ=    30.9937
   Eigenvalues:    24.2377    30.2044    38.0274
    109  H    Isotropic =    30.6179   Anisotropy =    14.9780
   XX=    31.5696   YX=     4.9222   ZX=     4.7797
   XY=     4.4852   YY=    32.1888   ZY=     5.0320
   XZ=     5.3329   YZ=     4.8987   ZZ=    28.0952
   Eigenvalues:    24.0651    27.1853    40.6032
    110  H    Isotropic =    31.7662   Anisotropy =    10.7891
   XX=    29.6192   YX=     1.1954   ZX=    -2.4233
   XY=    -0.1541   YY=    27.2032   ZY=     1.6228
   XZ=    -0.8224   YZ=     1.6271   ZZ=    38.4762
   Eigenvalues:    26.7661    29.5736    38.9589
 End of Minotr F.D. properties file   721 does not exist.
 End of Minotr F.D. properties file   722 does not exist.
 End of Minotr F.D. properties file   788 does not exist.
 Hyperfine terms turned off by default for NAtoms > 100.

 **********************************************************************

            Population analysis using the SCF Density.

 **********************************************************************

 Orbital symmetries:
       Occupied  (A) (A) (A) (A) (A) (A) (A) (A) (A) (A) (A) (A)
                 (A) (A) (A) (A) (A) (A) (A) (A) (A) (A) (A) (A)
                 (A) (A) (A) (A) (A) (A) (A) (A) (A) (A) (A) (A)
                 (A) (A) (A) (A) (A) (A) (A) (A) (A) (A) (A) (A)
                 (A) (A) (A) (A) (A) (A) (A) (A) (A) (A) (A) (A)
                 (A) (A) (A) (A) (A) (A) (A) (A) (A) (A) (A) (A)
                 (A) (A) (A) (A) (A) (A) (A) (A) (A) (A) (A) (A)
                 (A) (A) (A) (A) (A) (A) (A) (A) (A) (A) (A) (A)
                 (A) (A) (A) (A) (A) (A) (A) (A) (A) (A) (A) (A)
                 (A) (A) (A) (A) (A) (A) (A) (A) (A) (A) (A) (A)
                 (A) (A) (A) (A) (A) (A) (A) (A) (A) (A) (A) (A)
                 (A) (A) (A) (A) (A) (A) (A) (A) (A) (A) (A) (A)
                 (A) (A) (A) (A) (A) (A) (A) (A) (A) (A) (A) (A)
                 (A) (A) (A) (A) (A) (A) (A) (A) (A) (A) (A) (A)
                 (A) (A) (A) (A) (A) (A) (A) (A) (A) (A) (A) (A)
                 (A) (A) (A) (A) (A) (A) (A) (A) (A) (A) (A) (A)
                 (A) (A) (A) (A) (A)
       Virtual   (A) (A) (A) (A) (A) (A) (A) (A) (A) (A) (A) (A)
                 (A) (A) (A) (A) (A) (A) (A) (A) (A) (A) (A) (A)
                 (A) (A) (A) (A) (A) (A) (A) (A) (A) (A) (A) (A)
                 (A) (A) (A) (A) (A) (A) (A) (A) (A) (A) (A) (A)
                 (A) (A) (A) (A) (A) (A) (A) (A) (A) (A) (A) (A)
                 (A) (A) (A) (A) (A) (A) (A) (A) (A) (A) (A) (A)
                 (A) (A) (A) (A) (A) (A) (A) (A) (A) (A) (A) (A)
                 (A) (A) (A) (A) (A) (A) (A) (A) (A) (A) (A) (A)
                 (A) (A) (A) (A) (A) (A) (A) (A) (A) (A) (A) (A)
                 (A) (A) (A) (A) (A) (A) (A) (A) (A) (A) (A) (A)
                 (A) (A) (A) (A) (A) (A) (A) (A) (A)
 The electronic state is 1-A.
 Alpha  occ. eigenvalues --  -20.31341 -20.29919 -20.25325 -20.23781 -19.91824
 Alpha  occ. eigenvalues --  -15.48369 -15.34132 -15.32513 -15.29877 -11.17353
 Alpha  occ. eigenvalues --  -11.15732 -11.11085 -11.10383 -11.09947 -11.09409
 Alpha  occ. eigenvalues --  -11.08785 -11.08692 -11.08260 -11.08169 -11.07369
 Alpha  occ. eigenvalues --  -11.07346 -11.07252 -11.06811 -11.06481 -11.06230
 Alpha  occ. eigenvalues --  -11.05945 -11.05717 -11.05673 -11.05561 -11.05460
 Alpha  occ. eigenvalues --  -11.05453 -11.05136 -11.05020 -11.04739 -11.04644
 Alpha  occ. eigenvalues --  -11.04560 -11.04354 -11.04082 -11.03634 -11.03526
 Alpha  occ. eigenvalues --  -11.03509 -11.02914 -11.02246 -11.02117 -11.02064
 Alpha  occ. eigenvalues --  -11.01971 -11.01916 -11.01889 -11.01536 -11.01234
 Alpha  occ. eigenvalues --  -11.00875 -11.00845 -11.00572 -11.00408  -1.38560
 Alpha  occ. eigenvalues --   -1.37119  -1.28404  -1.28207  -1.26903  -1.21583
 Alpha  occ. eigenvalues --   -1.20409  -1.18056  -1.12051  -1.09004  -1.08479
 Alpha  occ. eigenvalues --   -1.07185  -1.06205  -1.04245  -1.03677  -1.00795
 Alpha  occ. eigenvalues --   -0.99982  -0.98737  -0.97938  -0.97465  -0.96831
 Alpha  occ. eigenvalues --   -0.95732  -0.94438  -0.93632  -0.93357  -0.92589
 Alpha  occ. eigenvalues --   -0.92247  -0.90957  -0.90887  -0.89251  -0.87841
 Alpha  occ. eigenvalues --   -0.86541  -0.84727  -0.82610  -0.82381  -0.80878
 Alpha  occ. eigenvalues --   -0.80788  -0.79220  -0.78900  -0.78287  -0.76687
 Alpha  occ. eigenvalues --   -0.76367  -0.74825  -0.73321  -0.72911  -0.71707
 Alpha  occ. eigenvalues --   -0.70729  -0.69754  -0.69403  -0.68685  -0.66610
 Alpha  occ. eigenvalues --   -0.65522  -0.65029  -0.64694  -0.64010  -0.63854
 Alpha  occ. eigenvalues --   -0.62744  -0.61872  -0.61803  -0.61361  -0.60872
 Alpha  occ. eigenvalues --   -0.60429  -0.59849  -0.59604  -0.58973  -0.58737
 Alpha  occ. eigenvalues --   -0.58536  -0.58097  -0.57790  -0.57579  -0.57177
 Alpha  occ. eigenvalues --   -0.56933  -0.56294  -0.55997  -0.55701  -0.55590
 Alpha  occ. eigenvalues --   -0.55293  -0.55001  -0.54191  -0.53826  -0.53789
 Alpha  occ. eigenvalues --   -0.53345  -0.53182  -0.52747  -0.52464  -0.52306
 Alpha  occ. eigenvalues --   -0.51760  -0.51361  -0.51232  -0.50738  -0.50619
 Alpha  occ. eigenvalues --   -0.50017  -0.49910  -0.49406  -0.48888  -0.48593
 Alpha  occ. eigenvalues --   -0.48425  -0.48235  -0.47943  -0.47408  -0.47285
 Alpha  occ. eigenvalues --   -0.46979  -0.46702  -0.45910  -0.45626  -0.45144
 Alpha  occ. eigenvalues --   -0.44843  -0.44827  -0.44506  -0.43907  -0.43769
 Alpha  occ. eigenvalues --   -0.43602  -0.43233  -0.42745  -0.42499  -0.42326
 Alpha  occ. eigenvalues --   -0.41933  -0.41729  -0.41572  -0.41452  -0.40535
 Alpha  occ. eigenvalues --   -0.40097  -0.39604  -0.39404  -0.39153  -0.37862
 Alpha  occ. eigenvalues --   -0.37473  -0.36419  -0.36169  -0.35511  -0.34802
 Alpha  occ. eigenvalues --   -0.33944  -0.33371  -0.32630  -0.32588  -0.31039
 Alpha  occ. eigenvalues --   -0.27312  -0.26248  -0.25356  -0.21413  -0.19867
 Alpha  occ. eigenvalues --   -0.15461  -0.15212
 Alpha virt. eigenvalues --    0.26776   0.27916   0.28282   0.29119   0.29730
 Alpha virt. eigenvalues --    0.31235   0.46093   0.46700   0.48783   0.49173
 Alpha virt. eigenvalues --    0.49591   0.49691   0.50761   0.51123   0.52767
 Alpha virt. eigenvalues --    0.53231   0.53982   0.54790   0.55522   0.55684
 Alpha virt. eigenvalues --    0.56594   0.57772   0.58308   0.58463   0.58560
 Alpha virt. eigenvalues --    0.59254   0.59491   0.59876   0.60612   0.61319
 Alpha virt. eigenvalues --    0.61586   0.61943   0.62063   0.62364   0.62884
 Alpha virt. eigenvalues --    0.63371   0.63884   0.64010   0.64085   0.64389
 Alpha virt. eigenvalues --    0.64735   0.64996   0.65075   0.65203   0.65591
 Alpha virt. eigenvalues --    0.65976   0.66269   0.66457   0.66508   0.66962
 Alpha virt. eigenvalues --    0.67601   0.67796   0.68181   0.68483   0.68865
 Alpha virt. eigenvalues --    0.68991   0.69122   0.69486   0.69720   0.69896
 Alpha virt. eigenvalues --    0.70107   0.70168   0.70581   0.70787   0.70906
 Alpha virt. eigenvalues --    0.71348   0.71530   0.71649   0.72057   0.72182
 Alpha virt. eigenvalues --    0.73061   0.73306   0.73559   0.73694   0.74160
 Alpha virt. eigenvalues --    0.74213   0.74420   0.75042   0.75070   0.75407
 Alpha virt. eigenvalues --    0.75721   0.75781   0.75960   0.76177   0.76271
 Alpha virt. eigenvalues --    0.76940   0.77106   0.77564   0.77651   0.77870
 Alpha virt. eigenvalues --    0.78486   0.78554   0.78787   0.78927   0.79603
 Alpha virt. eigenvalues --    0.79859   0.80049   0.80443   0.80466   0.80965
 Alpha virt. eigenvalues --    0.81475   0.81839   0.82212   0.82321   0.82898
 Alpha virt. eigenvalues --    0.83775   0.84184   0.84740   0.85100   0.85747
 Alpha virt. eigenvalues --    0.85937   0.87038   0.87113   0.87807   0.88010
 Alpha virt. eigenvalues --    0.88798   0.90148   0.91086   0.92417   0.94017
 Alpha virt. eigenvalues --    0.95150   0.95902   0.98168   1.00556   1.02153
 Alpha virt. eigenvalues --    1.10694   1.12430   1.15671   1.17030
          Condensed to atoms (all electrons):
 Mulliken charges:
               1
     1  C   -0.073260
     2  C   -0.001365
     3  C   -0.062262
     4  C   -0.089116
     5  C    0.090140
     6  C   -0.010127
     7  N   -0.285416
     8  C    0.018405
     9  C    0.126161
    10  C    0.041287
    11  C   -0.115955
    12  C   -0.107140
    13  C    0.026760
    14  N   -0.292367
    15  C   -0.014155
    16  C   -0.108493
    17  C   -0.101895
    18  C   -0.105348
    19  C   -0.019392
    20  C   -0.110100
    21  C   -0.066401
    22  C    0.319360
    23  O   -0.278968
    24  O   -0.255064
    25  C   -0.055561
    26  C   -0.079933
    27  C   -0.109947
    28  C    0.001311
    29  C   -0.074101
    30  C   -0.060711
    31  C   -0.090583
    32  C    0.089750
    33  C   -0.020561
    34  N   -0.285732
    35  C    0.014634
    36  C    0.128665
    37  C    0.034247
    38  C   -0.116025
    39  C   -0.104498
    40  C    0.032250
    41  N   -0.073978
    42  C   -0.008041
    43  C   -0.101601
    44  C   -0.102355
    45  C   -0.120241
    46  C   -0.013367
    47  C   -0.111510
    48  C   -0.066214
    49  C    0.321261
    50  O   -0.279157
    51  O   -0.254337
    52  C   -0.055346
    53  C   -0.079494
    54  O   -0.457149
    55  H    0.065452
    56  H    0.054021
    57  H    0.057794
    58  H    0.056058
    59  H    0.050126
    60  H    0.070228
    61  H    0.045085
    62  H    0.063476
    63  H    0.050073
    64  H    0.060572
    65  H    0.051329
    66  H    0.050994
    67  H    0.046534
    68  H    0.050823
    69  H    0.063025
    70  H    0.062131
    71  H    0.055525
    72  H    0.051016
    73  H    0.050154
    74  H    0.065716
    75  H    0.064986
    76  H    0.074240
    77  H    0.076613
    78  H    0.071319
    79  H    0.058697
    80  H    0.069546
    81  H    0.074954
    82  H    0.060806
    83  H    0.060776
    84  H    0.077527
    85  H    0.057547
    86  H    0.059199
    87  H    0.090854
    88  H    0.053453
    89  H    0.059386
    90  H    0.056351
    91  H    0.051528
    92  H    0.087279
    93  H    0.061162
    94  H    0.075767
    95  H    0.059511
    96  H    0.063342
    97  H    0.055298
    98  H    0.072291
    99  H    0.070143
   100  H    0.074531
   101  H    0.093457
   102  H    0.065548
   103  H    0.055860
   104  H    0.067080
   105  H    0.073172
   106  H    0.078766
   107  H    0.075829
   108  H    0.076370
   109  H    0.072755
   110  H    0.056957
 Sum of Mulliken charges =  -0.00000
 Mulliken charges with hydrogens summed into heavy atoms:
               1
     1  C   -0.007808
     2  C   -0.001365
     3  C   -0.008241
     4  C   -0.031322
     5  C    0.090140
     6  C   -0.010127
     7  N   -0.285416
     8  C    0.018405
     9  C    0.126161
    10  C    0.097344
    11  C    0.004399
    12  C    0.001422
    13  C    0.026760
    14  N   -0.292367
    15  C    0.096490
    16  C   -0.006170
    17  C   -0.004538
    18  C    0.019807
    19  C    0.087149
    20  C    0.005769
    21  C   -0.001414
    22  C    0.319360
    23  O   -0.278968
    24  O   -0.255064
    25  C    0.166610
    26  C    0.123264
    27  C    0.011636
    28  C    0.001311
    29  C    0.003426
    30  C   -0.003163
    31  C   -0.031384
    32  C    0.089750
    33  C   -0.020561
    34  N   -0.285732
    35  C    0.014634
    36  C    0.128665
    37  C    0.125101
    38  C   -0.003186
    39  C    0.003381
    40  C    0.032250
    41  N   -0.073978
    42  C    0.140400
    43  C    0.033676
    44  C    0.016285
    45  C    0.022194
    46  C    0.154621
    47  C    0.009899
    48  C    0.000865
    49  C    0.321261
    50  O   -0.279157
    51  O   -0.254337
    52  C    0.172422
    53  C    0.126589
    54  O   -0.457149
 Electronic spatial extent (au):  <R**2>=          34350.1016
 Charge=             -0.0000 electrons
 Dipole moment (field-independent basis, Debye):
    X=              3.6966    Y=             -2.0072    Z=              1.0515  Tot=              4.3358
 Quadrupole moment (field-independent basis, Debye-Ang):
   XX=           -278.7169   YY=           -292.8195   ZZ=           -303.4548
   XY=             -1.8576   XZ=             11.1017   YZ=             -0.8181
 Traceless Quadrupole moment (field-independent basis, Debye-Ang):
   XX=             12.9469   YY=             -1.1558   ZZ=            -11.7911
   XY=             -1.8576   XZ=             11.1017   YZ=             -0.8181
 Octapole moment (field-independent basis, Debye-Ang**2):
  XXX=             53.7587  YYY=            -26.9141  ZZZ=             -8.1303  XYY=             15.9306
  XXY=              9.8752  XXZ=            -26.1441  XZZ=             27.0883  YZZ=              3.2750
  YYZ=            -10.7978  XYZ=             -8.0588
 Hexadecapole moment (field-independent basis, Debye-Ang**3):
 XXXX=         -27518.3525 YYYY=          -7903.7581 ZZZZ=          -5108.5427 XXXY=             -1.4277
 XXXZ=            668.8526 YYYX=            -19.0573 YYYZ=             39.3151 ZZZX=              1.1786
 ZZZY=             11.3857 XXYY=          -6213.1366 XXZZ=          -5816.2180 YYZZ=          -2117.8956
 XXYZ=             20.8204 YYXZ=             37.4787 ZZXY=            -17.3823
 N-N= 8.316176879221D+03 E-N=-2.200908653765D+04  KE= 2.279173726105D+03
 ******************************Gaussian NBO Version 3.1******************************
             N A T U R A L   A T O M I C   O R B I T A L   A N D
          N A T U R A L   B O N D   O R B I T A L   A N A L Y S I S
 ******************************Gaussian NBO Version 3.1******************************
       /RESON  / : Allow strongly delocalized NBO set
       /NLMO   / : Form Natural Localized Molecular Orbitals
       /NMR /    : Analyze NMR Sheilding Tensor 

 Analyzing the SCF density

 Job title: pleiokomenine_C_1a                                              

 Storage needed:    355564 in NPA,    438187 in NBO,   2133784 in NLMO ( 104796000 available)
 GSVD:  LWork=     -108884 too small for GESVD, short by      536270 words or      536270 for optimal perf.


 NATURAL POPULATIONS:  Natural atomic orbital occupancies 
                                                          
   NAO  Atom  No  lang   Type(AO)    Occupancy      Energy
 ----------------------------------------------------------
     1    C    1  S      Cor( 1S)     1.99992     -10.93388
     2    C    1  S      Val( 2S)     1.07915      -0.16508
     3    C    1  px     Val( 2p)     0.99443       0.11624
     4    C    1  py     Val( 2p)     0.98756       0.12523
     5    C    1  pz     Val( 2p)     0.99360       0.11558
 
     6    C    2  S      Cor( 1S)     1.99990     -10.94537
     7    C    2  S      Val( 2S)     1.07835      -0.17307
     8    C    2  px     Val( 2p)     0.95826       0.13735
     9    C    2  py     Val( 2p)     0.97061       0.13823
    10    C    2  pz     Val( 2p)     0.98108       0.12225
 
    11    C    3  S      Cor( 1S)     1.99994     -10.93651
    12    C    3  S      Val( 2S)     1.08357      -0.17128
    13    C    3  px     Val( 2p)     0.98088       0.12743
    14    C    3  py     Val( 2p)     0.98380       0.12695
    15    C    3  pz     Val( 2p)     0.98600       0.11120
 
    16    C    4  S      Cor( 1S)     1.99993     -10.92947
    17    C    4  S      Val( 2S)     1.07159      -0.16144
    18    C    4  px     Val( 2p)     1.00681       0.11512
    19    C    4  py     Val( 2p)     0.99512       0.12917
    20    C    4  pz     Val( 2p)     1.01277       0.10388
 
    21    C    5  S      Cor( 1S)     1.99985     -10.97586
    22    C    5  S      Val( 2S)     1.06012      -0.17282
    23    C    5  px     Val( 2p)     0.90334       0.12832
    24    C    5  py     Val( 2p)     0.94305       0.14886
    25    C    5  pz     Val( 2p)     0.98011       0.10172
 
    26    C    6  S      Cor( 1S)     1.99990     -10.93517
    27    C    6  S      Val( 2S)     1.08259      -0.17503
    28    C    6  px     Val( 2p)     0.98626       0.13427
    29    C    6  py     Val( 2p)     0.97089       0.13226
    30    C    6  pz     Val( 2p)     0.98187       0.11313
 
    31    N    7  S      Cor( 1S)     1.99998     -15.25778
    32    N    7  S      Val( 2S)     1.41214      -0.58602
    33    N    7  px     Val( 2p)     1.48962      -0.13384
    34    N    7  py     Val( 2p)     1.11901       0.00181
    35    N    7  pz     Val( 2p)     1.25299      -0.04015
 
    36    C    8  S      Cor( 1S)     1.99996     -10.99614
    37    C    8  S      Val( 2S)     1.10873      -0.22102
    38    C    8  px     Val( 2p)     0.97263       0.08586
    39    C    8  py     Val( 2p)     0.95508       0.11774
    40    C    8  pz     Val( 2p)     0.94386       0.12438
 
    41    C    9  S      Cor( 1S)     1.99996     -11.03738
    42    C    9  S      Val( 2S)     1.11326      -0.24488
    43    C    9  px     Val( 2p)     0.92377       0.09823
    44    C    9  py     Val( 2p)     0.86065       0.13714
    45    C    9  pz     Val( 2p)     0.93262       0.09445
 
    46    C   10  S      Cor( 1S)     1.99993     -11.00879
    47    C   10  S      Val( 2S)     1.09763      -0.21054
    48    C   10  px     Val( 2p)     0.99786       0.09362
    49    C   10  py     Val( 2p)     0.96606       0.09261
    50    C   10  pz     Val( 2p)     0.86306       0.13175
 
    51    C   11  S      Cor( 1S)     1.99994     -10.96191
    52    C   11  S      Val( 2S)     1.10437      -0.19657
    53    C   11  px     Val( 2p)     0.99828       0.10129
    54    C   11  py     Val( 2p)     0.99565       0.10116
    55    C   11  pz     Val( 2p)     0.98825       0.10508
 
    56    C   12  S      Cor( 1S)     1.99996     -10.96105
    57    C   12  S      Val( 2S)     1.09129      -0.18283
    58    C   12  px     Val( 2p)     1.01865       0.10149
    59    C   12  py     Val( 2p)     0.99041       0.10768
    60    C   12  pz     Val( 2p)     0.97557       0.10642
 
    61    C   13  S      Cor( 1S)     1.99998     -10.99456
    62    C   13  S      Val( 2S)     1.10465      -0.21831
    63    C   13  px     Val( 2p)     0.93857       0.11889
    64    C   13  py     Val( 2p)     0.95252       0.11501
    65    C   13  pz     Val( 2p)     0.95532       0.11256
 
    66    N   14  S      Cor( 1S)     1.99999     -15.23175
    67    N   14  S      Val( 2S)     1.42311      -0.57435
    68    N   14  px     Val( 2p)     1.29740      -0.04416
    69    N   14  py     Val( 2p)     1.46581      -0.11198
    70    N   14  pz     Val( 2p)     1.09460       0.03432
 
    71    C   15  S      Cor( 1S)     1.99994     -11.00461
    72    C   15  S      Val( 2S)     1.06880      -0.18549
    73    C   15  px     Val( 2p)     1.00266       0.08078
    74    C   15  py     Val( 2p)     0.90527       0.12302
    75    C   15  pz     Val( 2p)     0.98381       0.08929
 
    76    C   16  S      Cor( 1S)     1.99997     -10.97286
    77    C   16  S      Val( 2S)     1.08084      -0.18629
    78    C   16  px     Val( 2p)     1.01811       0.09217
    79    C   16  py     Val( 2p)     0.99300       0.09361
    80    C   16  pz     Val( 2p)     0.98291       0.09669
 
    81    C   17  S      Cor( 1S)     1.99996     -10.97440
    82    C   17  S      Val( 2S)     1.08544      -0.18902
    83    C   17  px     Val( 2p)     1.00788       0.09387
    84    C   17  py     Val( 2p)     0.99809       0.09430
    85    C   17  pz     Val( 2p)     0.97639       0.09755
 
    86    C   18  S      Cor( 1S)     1.99995     -10.96714
    87    C   18  S      Val( 2S)     1.09169      -0.18738
    88    C   18  px     Val( 2p)     1.01478       0.10382
    89    C   18  py     Val( 2p)     1.00687       0.09517
    90    C   18  pz     Val( 2p)     0.96217       0.09980
 
    91    C   19  S      Cor( 1S)     1.99994     -10.99290
    92    C   19  S      Val( 2S)     1.07166      -0.17756
    93    C   19  px     Val( 2p)     0.89367       0.12923
    94    C   19  py     Val( 2p)     0.99742       0.09071
    95    C   19  pz     Val( 2p)     1.00313       0.09178
 
    96    C   20  S      Cor( 1S)     1.99992     -10.97594
    97    C   20  S      Val( 2S)     1.09942      -0.20354
    98    C   20  px     Val( 2p)     0.97518       0.09150
    99    C   20  py     Val( 2p)     0.98475       0.09228
   100    C   20  pz     Val( 2p)     1.01384       0.09252
 
   101    C   21  S      Cor( 1S)     1.99994     -10.99908
   102    C   21  S      Val( 2S)     1.11082      -0.22968
   103    C   21  px     Val( 2p)     0.96973       0.09087
   104    C   21  py     Val( 2p)     0.99468       0.07570
   105    C   21  pz     Val( 2p)     1.00934       0.07493
 
   106    C   22  S      Cor( 1S)     1.99991     -11.10440
   107    C   22  S      Val( 2S)     1.05559      -0.25367
   108    C   22  px     Val( 2p)     0.88817       0.08682
   109    C   22  py     Val( 2p)     0.85288       0.01869
   110    C   22  pz     Val( 2p)     0.80022       0.19258
 
   111    O   23  S      Cor( 1S)     1.99999     -20.09064
   112    O   23  S      Val( 2S)     1.80821      -1.05096
   113    O   23  px     Val( 2p)     1.76619      -0.28525
   114    O   23  py     Val( 2p)     1.38279      -0.16366
   115    O   23  pz     Val( 2p)     1.35613      -0.11106
 
   116    O   24  S      Cor( 1S)     1.99999     -20.20854
   117    O   24  S      Val( 2S)     1.72999      -1.02098
   118    O   24  px     Val( 2p)     1.26578      -0.11035
   119    O   24  py     Val( 2p)     1.70679      -0.30289
   120    O   24  pz     Val( 2p)     1.56413      -0.25040
 
   121    C   25  S      Cor( 1S)     1.99984     -11.03978
   122    C   25  S      Val( 2S)     1.07674      -0.22127
   123    C   25  px     Val( 2p)     0.85744       0.08087
   124    C   25  py     Val( 2p)     1.01612       0.04921
   125    C   25  pz     Val( 2p)     1.01510       0.05045
 
   126    C   26  S      Cor( 1S)     1.99992     -11.00397
   127    C   26  S      Val( 2S)     1.06584      -0.18536
   128    C   26  px     Val( 2p)     1.02038       0.07226
   129    C   26  py     Val( 2p)     1.04955       0.06038
   130    C   26  pz     Val( 2p)     0.88174       0.11437
 
   131    C   27  S      Cor( 1S)     1.99995     -10.97805
   132    C   27  S      Val( 2S)     1.08428      -0.18402
   133    C   27  px     Val( 2p)     0.97156       0.10935
   134    C   27  py     Val( 2p)     1.00351       0.09025
   135    C   27  pz     Val( 2p)     1.02726       0.08982
 
   136    C   28  S      Cor( 1S)     1.99990     -10.95451
   137    C   28  S      Val( 2S)     1.08113      -0.18296
   138    C   28  px     Val( 2p)     0.95777       0.13283
   139    C   28  py     Val( 2p)     0.96626       0.13626
   140    C   28  pz     Val( 2p)     0.97899       0.10579
 
   141    C   29  S      Cor( 1S)     1.99992     -10.94524
   142    C   29  S      Val( 2S)     1.08316      -0.17840
   143    C   29  px     Val( 2p)     0.98871       0.11663
   144    C   29  py     Val( 2p)     0.98619       0.11758
   145    C   29  pz     Val( 2p)     0.99598       0.09153
 
   146    C   30  S      Cor( 1S)     1.99994     -10.94691
   147    C   30  S      Val( 2S)     1.08453      -0.18163
   148    C   30  px     Val( 2p)     0.97739       0.12400
   149    C   30  py     Val( 2p)     0.98213       0.12092
   150    C   30  pz     Val( 2p)     0.98805       0.09058
 
   151    C   31  S      Cor( 1S)     1.99993     -10.94068
   152    C   31  S      Val( 2S)     1.07152      -0.17302
   153    C   31  px     Val( 2p)     1.00582       0.10887
   154    C   31  py     Val( 2p)     0.99245       0.12164
   155    C   31  pz     Val( 2p)     1.01884       0.08208
 
   156    C   32  S      Cor( 1S)     1.99985     -10.98969
   157    C   32  S      Val( 2S)     1.06009      -0.18685
   158    C   32  px     Val( 2p)     0.89939       0.11984
   159    C   32  py     Val( 2p)     0.94447       0.13705
   160    C   32  pz     Val( 2p)     0.98235       0.08011
 
   161    C   33  S      Cor( 1S)     1.99990     -10.94896
   162    C   33  S      Val( 2S)     1.08154      -0.19076
   163    C   33  px     Val( 2p)     0.99031       0.12497
   164    C   33  py     Val( 2p)     0.96886       0.11873
   165    C   33  pz     Val( 2p)     0.99369       0.08589
 
   166    N   34  S      Cor( 1S)     1.99998     -15.27366
   167    N   34  S      Val( 2S)     1.40784      -0.60018
   168    N   34  px     Val( 2p)     1.46751      -0.14067
   169    N   34  py     Val( 2p)     1.11441      -0.01204
   170    N   34  pz     Val( 2p)     1.28455      -0.06958
 
   171    C   35  S      Cor( 1S)     1.99996     -11.02034
   172    C   35  S      Val( 2S)     1.10536      -0.24396
   173    C   35  px     Val( 2p)     0.97531       0.06008
   174    C   35  py     Val( 2p)     0.96081       0.08986
   175    C   35  pz     Val( 2p)     0.94494       0.09803
 
   176    C   36  S      Cor( 1S)     1.99996     -11.05921
   177    C   36  S      Val( 2S)     1.11133      -0.26452
   178    C   36  px     Val( 2p)     0.92237       0.07794
   179    C   36  py     Val( 2p)     0.86235       0.11609
   180    C   36  pz     Val( 2p)     0.93205       0.07270
 
   181    C   37  S      Cor( 1S)     1.99990     -11.03561
   182    C   37  S      Val( 2S)     1.12223      -0.25998
   183    C   37  px     Val( 2p)     1.01697       0.06020
   184    C   37  py     Val( 2p)     0.97748       0.06075
   185    C   37  pz     Val( 2p)     0.81781       0.09906
 
   186    C   38  S      Cor( 1S)     1.99994     -10.98785
   187    C   38  S      Val( 2S)     1.10505      -0.22333
   188    C   38  px     Val( 2p)     1.00054       0.07446
   189    C   38  py     Val( 2p)     0.98949       0.07699
   190    C   38  pz     Val( 2p)     0.99145       0.07765
 
   191    C   39  S      Cor( 1S)     1.99995     -10.98932
   192    C   39  S      Val( 2S)     1.09315      -0.21202
   193    C   39  px     Val( 2p)     1.01422       0.07614
   194    C   39  py     Val( 2p)     0.99174       0.07990
   195    C   39  pz     Val( 2p)     0.97268       0.07905
 
   196    C   40  S      Cor( 1S)     1.99998     -11.02442
   197    C   40  S      Val( 2S)     1.10317      -0.24425
   198    C   40  px     Val( 2p)     0.94107       0.09337
   199    C   40  py     Val( 2p)     0.94345       0.09076
   200    C   40  pz     Val( 2p)     0.95750       0.08296
 
   201    N   41  S      Cor( 1S)     1.99999     -15.42353
   202    N   41  S      Val( 2S)     1.40602      -0.66351
   203    N   41  px     Val( 2p)     1.27756      -0.13202
   204    N   41  py     Val( 2p)     1.13454      -0.09497
   205    N   41  pz     Val( 2p)     1.14145      -0.09770
 
   206    C   42  S      Cor( 1S)     1.99990     -11.03546
   207    C   42  S      Val( 2S)     1.08931      -0.23264
   208    C   42  px     Val( 2p)     0.98418       0.06787
   209    C   42  py     Val( 2p)     0.88779       0.08126
   210    C   42  pz     Val( 2p)     0.99322       0.04849
 
   211    C   43  S      Cor( 1S)     1.99996     -10.99373
   212    C   43  S      Val( 2S)     1.08065      -0.20317
   213    C   43  px     Val( 2p)     1.03429       0.07015
   214    C   43  py     Val( 2p)     0.97761       0.08265
   215    C   43  pz     Val( 2p)     0.97938       0.08374
 
   216    C   44  S      Cor( 1S)     1.99995     -10.98951
   217    C   44  S      Val( 2S)     1.08492      -0.20317
   218    C   44  px     Val( 2p)     1.02147       0.07341
   219    C   44  py     Val( 2p)     0.99549       0.08176
   220    C   44  pz     Val( 2p)     0.96931       0.08739
 
   221    C   45  S      Cor( 1S)     1.99995     -10.99354
   222    C   45  S      Val( 2S)     1.08947      -0.21385
   223    C   45  px     Val( 2p)     0.99895       0.07379
   224    C   45  py     Val( 2p)     1.03962       0.06187
   225    C   45  pz     Val( 2p)     0.96673       0.06600
 
   226    C   46  S      Cor( 1S)     1.99991     -11.02877
   227    C   46  S      Val( 2S)     1.09712      -0.23434
   228    C   46  px     Val( 2p)     0.96266       0.06771
   229    C   46  py     Val( 2p)     0.90705       0.07018
   230    C   46  pz     Val( 2p)     0.99509       0.06330
 
   231    C   47  S      Cor( 1S)     1.99992     -10.99768
   232    C   47  S      Val( 2S)     1.10087      -0.22631
   233    C   47  px     Val( 2p)     0.96745       0.07241
   234    C   47  py     Val( 2p)     0.98996       0.06875
   235    C   47  pz     Val( 2p)     1.01600       0.07002
 
   236    C   48  S      Cor( 1S)     1.99994     -11.01838
[...]
 NLMO      Total    Paramagnetic  Diamagnetic   Paramagnetic  Diamagnetic
   99       0.3952       -0.6963       1.0915        -0.2424       0.6377
  102       1.4025        0.1996       1.2029         0.5036       0.8989
  103      -0.1113       -0.4401       0.3288        -1.1830       1.0717
  105       1.5739       -0.9577       2.5316         0.4506       1.1233
  106      25.7698        0.1909      25.5789         0.4142      25.3556
  107       1.7295        3.2194      -1.4899        -0.0956       1.8251
  108      -0.2383        0.2221      -0.4604        -1.4540       1.2157
 Sum       30.5212        1.7378      28.7834        -1.6067      32.1279

 Contributions to Isotropic shielding for atom   95 (    32.2431 ppm):
                         Standard Origin              Atomic Origin
 NLMO      Total    Paramagnetic  Diamagnetic   Paramagnetic  Diamagnetic
  102       0.7455        2.6376      -1.8921        -0.2015       0.9470
  104      -0.0026        0.4024      -0.4050        -1.0210       1.0183
  105       0.9680        1.6477      -0.6797        -0.0896       1.0576
  106       2.2222        2.6297      -0.4075         0.3829       1.8393
  107      26.3664       -0.4810      26.8474         0.5800      25.7864
  109      -0.1115        0.8136      -0.9250        -1.2578       1.1464
 Sum       30.1880        7.6500      22.5380        -1.6070      31.7950

 Contributions to Isotropic shielding for atom   96 (    32.0449 ppm):
                         Standard Origin              Atomic Origin
 NLMO      Total    Paramagnetic  Diamagnetic   Paramagnetic  Diamagnetic
   97       1.9735       -1.4440       3.4175         1.0973       0.8762
  102       0.3299       -0.7571       1.0870         0.1402       0.1897
  105       1.3040        0.0324       1.2716         0.2551       1.0489
  106      -0.1206       -1.8864       1.7658        -1.3334       1.2127
  108      25.9229        0.5168      25.4060         0.2553      25.6676
  109       1.8239        1.4021       0.4217        -0.0134       1.8373
 Sum       31.2335       -2.1362      33.3697         0.4011      30.8323

 Contributions to Isotropic shielding for atom   97 (    32.3224 ppm):
                         Standard Origin              Atomic Origin
 NLMO      Total    Paramagnetic  Diamagnetic   Paramagnetic  Diamagnetic
   97       1.0935        0.9612       0.1324         0.2949       0.7987
   98      -0.2164        0.8891      -1.1055        -1.2084       0.9921
  105       0.5884        2.9834      -2.3949        -0.4019       0.9903
  107      -0.0698       -0.9085       0.8387        -1.2473       1.1775
  108       2.3798        0.6873       1.6925         0.5939       1.7859
  109      26.3484       -0.2818      26.6302         0.5170      25.8313
  117      -0.0402       -1.4455       1.4053        -0.8846       0.8445
 Sum       30.0838        2.8852      27.1986        -2.3364      32.4202

 Contributions to Isotropic shielding for atom   98 (    32.9330 ppm):
                         Standard Origin              Atomic Origin
 NLMO      Total    Paramagnetic  Diamagnetic   Paramagnetic  Diamagnetic
   71      -0.6619        0.1284      -0.7903        -1.5980       0.9360
   80      -0.0142        1.0095      -1.0237        -0.9699       0.9557
   85       1.4608       -0.7979       2.2587         0.7802       0.6806
   89      -0.1269        0.2344      -0.3613        -1.0669       0.9400
  110       1.0654        1.0142       0.0511         0.3595       0.7058
  111      25.9443        0.1111      25.8332         0.5809      25.3634
  112       1.7829        3.1417      -1.3589         0.0134       1.7695
  114       0.1177        0.0677       0.0500        -0.8904       1.0081
  121       0.0448       -1.1374       1.1821        -0.8144       0.8591
  126       0.0189       -1.0519       1.0708        -0.3180       0.3369
 Sum       29.6315        2.7199      26.9116        -3.9236      33.5551

 Contributions to Isotropic shielding for atom   99 (    32.6583 ppm):
                         Standard Origin              Atomic Origin
 NLMO      Total    Paramagnetic  Diamagnetic   Paramagnetic  Diamagnetic
   83      -0.3381        1.0469      -1.3850        -0.7929       0.4548
   85       1.2062       -0.5718       1.7780         0.4737       0.7325
   87      -0.1469       -0.5281       0.3812        -1.0123       0.8654
   89      -0.3423        0.4660      -0.8083        -1.2476       0.9053
  104      -0.1658       -1.5402       1.3744        -0.3471       0.1813
  110       0.9598        1.2048      -0.2450         0.1306       0.8292
  111       1.7665        3.0695      -1.3030        -0.1476       1.9141
  112      26.1714       -0.2235      26.3950         0.5325      25.6389
  116      -0.2562       -1.0222       0.7659        -0.7875       0.5313
  118       0.5669       -0.8770       1.4439        -0.4111       0.9780
  120       1.2746       -1.1318       2.4064         0.4536       0.8210
  121       0.0719       -3.7026       3.7744        -1.1589       1.2308
  126       0.0536       -1.2137       1.2673        -0.4865       0.5401
  191      -0.8331        1.6847      -2.5178         0.1384      -0.9715
 Sum       29.9885       -3.3390      33.3275        -4.6626      34.6511

 Contributions to Isotropic shielding for atom  100 (    31.3622 ppm):
                         Standard Origin              Atomic Origin
 NLMO      Total    Paramagnetic  Diamagnetic   Paramagnetic  Diamagnetic
   99      -0.5380        0.8030      -1.3410        -1.8102       1.2722
  110      -0.1105        1.4493      -1.5598        -0.9915       0.8809
  112       0.0672       -0.2227       0.2899        -1.0041       1.0714
  113      26.3165        0.1540      26.1625         1.0471      25.2694
  114       1.7545        0.7695       0.9850        -0.1225       1.8770
 Sum       27.4898        2.9531      24.5366        -2.8812      30.3709

 Contributions to Isotropic shielding for atom  101 (    30.7218 ppm):
                         Standard Origin              Atomic Origin
 NLMO      Total    Paramagnetic  Diamagnetic   Paramagnetic  Diamagnetic
   71      -0.1945       -0.2421       0.0476        -1.4234       1.2289
   85       0.3706       -0.7927       1.1633        -0.3847       0.7553
  100       2.1722       -1.5815       3.7537         1.2207       0.9515
  101      -0.0597       -0.0555      -0.0042        -1.0328       0.9731
  110       0.5818       -0.6729       1.2547        -0.2755       0.8574
  113       1.0603        1.3053      -0.2450        -0.8182       1.8785
  114      25.5417        0.7686      24.7731         0.7428      24.7989
  195       0.2515       -0.0120       0.2635         1.0729      -0.8214
 Sum       29.7239       -1.2828      31.0067        -0.8983      30.6222

 Contributions to Isotropic shielding for atom  102 (    31.5528 ppm):
                         Standard Origin              Atomic Origin
 NLMO      Total    Paramagnetic  Diamagnetic   Paramagnetic  Diamagnetic
   87       0.3276       -0.9593       1.2870         0.0190       0.3086
   97      -0.1982        1.0233      -1.2215        -0.8552       0.6571
   98       1.8098       -1.1355       2.9453         0.8583       0.9515
  104      -0.4650       -1.7692       1.3042        -0.5992       0.1342
  112      -0.2628       -1.3086       1.0458        -0.3287       0.0659
  115       0.4817        2.0405      -1.5588        -0.4105       0.8921
  116      26.2582       -0.1186      26.3767         0.5986      25.6596
  117       1.5872        3.1573      -1.5701        -0.3187       1.9059
  118       0.0575       -0.0192       0.0767        -1.0114       1.0689
  120       0.4741       -1.6568       2.1309        -0.4037       0.8778
  121       0.6084       -2.5902       3.1986        -1.1060       1.7143
  191      -0.7510        1.1389      -1.8899         0.1387      -0.8898
 Sum       29.9274       -2.1974      32.1248        -3.4187      33.3461

 Contributions to Isotropic shielding for atom  103 (    32.0738 ppm):
                         Standard Origin              Atomic Origin
 NLMO      Total    Paramagnetic  Diamagnetic   Paramagnetic  Diamagnetic
   87       0.3709       -0.8499       1.2208         0.1867       0.1842
   94      -0.1652        1.2219      -1.3870        -1.0061       0.8410
   97      -0.2266        1.3087      -1.5352        -1.0098       0.7832
   98       1.8706       -0.4896       2.3603         0.8514       1.0193
  115       0.4615        2.5770      -2.1155        -0.6020       1.0634
  116       1.6879        2.8578      -1.1699        -0.2124       1.9003
  117      26.4183       -0.3202      26.7386         0.6109      25.8074
  119      -0.1487       -0.7024       0.5536        -1.2935       1.1448
  121       0.2369       -0.9295       1.1665        -0.8282       1.0652
 Sum       30.5057        4.6737      25.8320        -3.3031      33.8088

 Contributions to Isotropic shielding for atom  104 (    31.1535 ppm):
                         Standard Origin              Atomic Origin
 NLMO      Total    Paramagnetic  Diamagnetic   Paramagnetic  Diamagnetic
   81      -0.4697        1.1825      -1.6521        -1.1237       0.6540
   86      -0.3724        1.3664      -1.7388        -1.5155       1.1431
   87       2.0467       -0.4814       2.5281         1.1059       0.9408
   98       0.2742       -0.7527       1.0269         0.0190       0.2552
  115       1.3974        0.9942       0.4032         0.2261       1.1713
  117      -0.2144        0.0746      -0.2890        -1.3713       1.1569
  118       0.0347        4.6559      -4.6211        -0.9125       0.9473
  119      25.9435       -0.5793      26.5228         0.4309      25.5126
  122       0.9721       -2.1673       3.1394        -0.6777       1.6498
  124       0.1586       -0.8555       1.0141        -0.4809       0.6395
  126       0.1508       -0.8926       1.0434        -0.2938       0.4446
  127      -0.2282       -2.0255       1.7973        -0.6401       0.4119
  193      -0.8271        0.4020      -1.2291         0.1490      -0.9761
 Sum       28.8662        0.9213      27.9449        -5.0848      33.9510

 Contributions to Isotropic shielding for atom  105 (    30.5400 ppm):
                         Standard Origin              Atomic Origin
 NLMO      Total    Paramagnetic  Diamagnetic   Paramagnetic  Diamagnetic
  120      -1.3185        0.9305      -2.2490        -2.2221       0.9036
  121      -0.6007        2.2124      -2.8131        -2.1448       1.5441
  122      -2.0400        1.5438      -3.5838        -2.8205       0.7804
  123       1.4651       -0.2882       1.7534        -0.0001       1.4652
  124      26.5043        0.6738      25.8305         1.2765      25.2278
  125       1.1741        4.4315      -3.2574        -0.8683       2.0424
  126       1.3217        1.3647      -0.0430        -0.5507       1.8723
  191       0.6136       -1.6865       2.3001         1.3925      -0.7789
  192       0.8224        1.0031      -0.1808         1.0430      -0.2206
  193       1.5608       -1.2058       2.7666         1.6212      -0.0604
  194       0.5070        1.0797      -0.5726         0.0345       0.4725
 Sum       30.0099       10.0590      19.9509        -3.2387      33.2485

 Contributions to Isotropic shielding for atom  106 (    30.4730 ppm):
                         Standard Origin              Atomic Origin
 NLMO      Total    Paramagnetic  Diamagnetic   Paramagnetic  Diamagnetic
  120      -0.6731        0.3386      -1.0117        -1.3008       0.6277
  121      -0.1402        1.0935      -1.2337        -1.1683       1.0282
  122      -0.5996        0.4774      -1.0769        -0.6336       0.0341
  123       1.1412        0.4909       0.6503        -0.9342       2.0754
  124       0.5580        3.8171      -3.2591        -1.4276       1.9856
  125      26.0077        0.3703      25.6374         0.8330      25.1747
  126       1.2018        1.4709      -0.2690        -0.7942       1.9960
  191       0.2585       -0.7720       1.0305         0.6416      -0.3831
  193       1.0633       -0.9522       2.0155         1.5334      -0.4702
  194       1.0503        0.4940       0.5563         0.7946       0.2557
 Sum       29.8679        6.8283      23.0396        -2.4561      32.3240

 Contributions to Isotropic shielding for atom  107 (    30.6021 ppm):
                         Standard Origin              Atomic Origin
 NLMO      Total    Paramagnetic  Diamagnetic   Paramagnetic  Diamagnetic
  120      -1.0271        0.7240      -1.7511        -1.9273       0.9002
  121      -0.4184        1.4878      -1.9062        -1.9521       1.5337
  122      -1.5102        1.5489      -3.0592        -2.3576       0.8474
  123       2.7663       -4.7116       7.4780         1.3517       1.4146
  124       1.0662        1.8664      -0.8003        -0.8089       1.8750
  125       1.4431        2.0746      -0.6315        -0.6018       2.0450
  126      26.1921        0.9841      25.2080         1.0339      25.1582
  191       0.3721       -1.1528       1.5249         1.1436      -0.7714
  193       0.9824       -0.1169       1.0993         1.0299      -0.0476
 Sum       29.8665        2.7047      27.1618        -3.0886      32.9551

 Contributions to Isotropic shielding for atom  108 (    30.8232 ppm):
                         Standard Origin              Atomic Origin
 NLMO      Total    Paramagnetic  Diamagnetic   Paramagnetic  Diamagnetic
   76      -0.4820       -0.0722      -0.4098        -1.3435       0.8616
   81      -0.4147        0.8081      -1.2228        -1.1650       0.7503
   82       1.2278       -0.2871       1.5150         0.0482       1.1796
   86      -0.1666        0.7486      -0.9152        -1.0060       0.8394
   87      -0.2126        0.9409      -1.1534        -1.0928       0.8802
  118      -0.3321        0.4418      -0.7739        -1.0935       0.7614
  122       1.1152       -1.0844       2.1996         0.5561       0.5591
  125       0.0700       -1.2983       1.3682        -0.6619       0.7319
  127      25.9803        0.2313      25.7490         0.6494      25.3309
  128       1.4769        3.7388      -2.2620        -0.5056       1.9825
  129       1.7353        0.5370       1.1982        -0.1038       1.8391
  193      -1.0586        0.5175      -1.5761         0.2759      -1.3345
 Sum       28.9389        5.2221      23.7168        -5.4425      34.3814

 Contributions to Isotropic shielding for atom  109 (    30.6179 ppm):
                         Standard Origin              Atomic Origin
 NLMO      Total    Paramagnetic  Diamagnetic   Paramagnetic  Diamagnetic
   75      -0.5429        0.5966      -1.1396        -1.2558       0.7129
   76      -0.8591        0.1562      -1.0153        -2.2168       1.3577
   79      -0.4616        0.7189      -1.1806        -1.0833       0.6217
   82       1.1390        0.6382       0.5008        -0.1233       1.2624
  122       0.6765       -0.5030       1.1795         0.4090       0.2675
  125       0.0057       -1.2617       1.2674        -0.6202       0.6259
  127       1.5484        3.6778      -2.1294        -0.4217       1.9701
  128      26.0607        0.1114      25.9494         0.7169      25.3438
  129       1.6897        1.1134       0.5763        -0.1053       1.7950
 Sum       29.2564        5.2479      24.0085        -4.7006      33.9570

 Contributions to Isotropic shielding for atom  110 (    31.7662 ppm):
                         Standard Origin              Atomic Origin
 NLMO      Total    Paramagnetic  Diamagnetic   Paramagnetic  Diamagnetic
   76      -0.7264       -0.2053      -0.5211        -1.9410       1.2147
   79      -0.4025        0.5884      -0.9909        -1.0780       0.6755
   82       2.0022       -3.0471       5.0493         1.2384       0.7638
   86      -0.2083        0.5637      -0.7720        -1.2382       1.0298
  122       0.5275       -0.5716       1.0990        -0.0298       0.5572
  127       1.8222        1.2419       0.5802        -0.0998       1.9220
  128       1.7981        2.1155      -0.3174        -0.0952       1.8934
  129      26.3893        0.8039      25.5853         0.7173      25.6720
 Sum       31.2020        1.4895      29.7125        -2.5265      33.7285
 
 1\1\GINC-PCSN02\SP\RHF\STO-3G\C45H56N4O5\ABENIDD\30-May-2024\0\\# nmr=
 giao hf/sto-3g pop=nbo geom=connectivity\\pleiokomenine_C_1a\\0,1\C,0,
 0.,0.,0.\C,0,1.4019,0.,0.\C,0,2.088,1.2331,0.\C,0,1.3994,2.4518,-0.067
 9\C,0,0.0189,2.4366,-0.1606\C,0,-0.6654,1.2107,-0.1096\N,0,-0.8626,3.5
 389,-0.3436\C,0,-2.1475,1.4744,-0.1807\C,0,-2.0686,2.8742,-0.9075\C,0,
 -3.0631,0.5399,-0.9876\C,0,-1.8547,2.6341,-2.4674\C,0,-3.0317,1.8657,-
 3.0801\C,0,-3.9627,1.3897,-1.9491\N,0,-3.7745,-0.249,0.0227\C,0,-4.945
 5,-0.9633,-0.4617\C,0,-5.8761,-0.1511,-1.3612\C,0,-5.1058,0.5228,-2.49
 61\C,0,-2.678,1.3844,1.2692\C,0,-3.9758,0.59,1.1941\C,0,-4.527,2.6972,
 -1.2961\C,0,-3.3948,3.65,-0.8242\C,0,-3.7193,4.3168,0.5007\O,0,-4.5889
 ,3.9476,1.2807\O,0,-2.9645,5.438,0.6745\C,0,-3.1816,6.1033,1.918\C,0,-
 0.2954,4.7182,-0.9816\C,0,2.1849,-1.2984,0.0242\C,0,1.6738,-2.4045,-0.
 8841\C,0,1.1436,-2.1278,-2.1544\C,0,1.7681,-3.7457,-0.4587\C,0,1.2823,
 -4.796,-1.2467\C,0,0.6884,-4.5034,-2.4623\C,0,0.6503,-3.1747,-2.9194\N
 ,0,0.0439,-5.4012,-3.3569\C,0,0.0154,-3.154,-4.2883\C,0,-0.8126,-4.493
 2,-4.1563\C,0,-0.9335,-2.0187,-4.6749\C,0,-2.1533,-4.1813,-3.3569\C,0,
 -3.0336,-3.1812,-4.1229\C,0,-2.2287,-2.6044,-5.31\N,0,-0.1538,-1.0236,
 -5.5442\C,0,-0.6752,-0.9437,-6.9575\C,0,-2.1779,-0.7093,-7.0334\C,0,-3
 .0062,-1.4893,-6.0116\C,0,1.1397,-3.0416,-5.3251\C,0,1.2682,-1.5432,-5
 .5407\C,0,-1.9732,-3.8279,-6.2597\C,0,-1.3061,-5.0213,-5.5149\C,0,-0.2
 96,-5.7635,-6.3777\O,0,0.1654,-5.3441,-7.432\O,0,-0.0385,-6.9999,-5.87
 01\C,0,0.9188,-7.7543,-6.6137\C,0,-0.4988,-6.6182,-2.7667\O,0,-0.1959,
 0.2308,-4.9909\H,0,-0.5647,-0.9272,0.0476\H,0,3.1753,1.2509,0.0338\H,0
 ,1.9558,3.3815,-0.081\H,0,-2.4723,-0.1648,-1.5891\H,0,-1.7458,3.5912,-
 2.9936\H,0,-0.9275,2.0846,-2.6713\H,0,-3.5733,2.5086,-3.7854\H,0,-2.65
 32,1.0193,-3.6652\H,0,-4.5902,-1.8299,-1.0345\H,0,-5.5128,-1.3832,0.37
 78\H,0,-6.6363,-0.8161,-1.7879\H,0,-6.4162,0.5946,-0.768\H,0,-4.7018,-
 0.2538,-3.1573\H,0,-5.7931,1.123,-3.1042\H,0,-2.7959,2.346,1.7674\H,0,
 -1.9875,0.8151,1.9085\H,0,-4.1127,-0.0146,2.0971\H,0,-4.8427,1.247,1.1
 089\H,0,-5.1304,3.2361,-2.0408\H,0,-5.2312,2.4683,-0.496\H,0,-3.3715,4
 .4829,-1.5438\H,0,-2.9774,5.4301,2.7566\H,0,-2.4883,6.9469,1.9762\H,0,
 -4.2039,6.4904,1.9701\H,0,0.2371,4.4733,-1.9076\H,0,0.3991,5.2225,-0.3
 011\H,0,-1.0799,5.4403,-1.2279\H,0,3.2283,-1.1096,-0.2587\H,0,2.192,-1
 .6477,1.0648\H,0,1.0866,-1.1042,-2.5195\H,0,2.2091,-3.9789,0.5086\H,0,
 1.3548,-5.8142,-0.8824\H,0,-1.2058,-1.4301,-3.7865\H,0,-2.7277,-5.1007
 ,-3.1863\H,0,-1.9453,-3.779,-2.3575\H,0,-3.3632,-2.3887,-3.44\H,0,-3.9
 447,-3.6788,-4.4786\H,0,-0.1371,-0.1146,-7.434\H,0,-0.3741,-1.8568,-7.
 4738\H,0,-2.3862,0.3603,-6.9038\H,0,-2.5177,-0.9566,-8.0465\H,0,-3.367
 3,-0.7765,-5.2589\H,0,-3.9079,-1.8862,-6.4942\H,0,2.0914,-3.4871,-5.01
 64\H,0,0.8725,-3.4767,-6.283\H,0,1.7494,-1.274,-6.4857\H,0,1.7935,-1.0
 459,-4.7198\H,0,-1.4,-3.5399,-7.14\H,0,-2.9357,-4.1758,-6.6613\H,0,-2.
 102,-5.7634,-5.3468\H,0,0.5346,-7.9771,-7.6138\H,0,1.0875,-8.6984,-6.0
 885\H,0,1.8705,-7.2169,-6.6733\H,0,-1.1228,-7.1557,-3.4871\H,0,0.3117,
 -7.2959,-2.4777\H,0,-1.1147,-6.4097,-1.8844\\Version=ES64L-G16RevB.01\
 State=1-A\HF=-2300.2182392\RMSD=3.652e-09\Dipole=-0.484312,-1.3317268,
 -0.9496628\Quadrupole=-4.4704745,10.7635592,-6.2930848,-1.1329981,4.97
 67487,6.461489\PG=C01 [X(C45H56N4O5)]\\@


 ASKING DUMB QUESTIONS IS EASIER THAN CORECTING DUMB MISTAKES.
 Job cpu time:       0 days  0 hours 12 minutes 26.7 seconds.
 Elapsed time:       0 days  0 hours  2 minutes  2.5 seconds.
 File lengths (MBytes):  RWF=     67 Int=      0 D2E=      0 Chk=     10 Scr=      1
 Normal termination of Gaussian 16 at Thu May 30 08:43:17 2024.
