 Entering Gaussian System, Link 0=g16
 Input=1_pleiokomenine_1a_c_16.gjf
 Output=1_pleiokomenine_1a_c_16.log
 Initial command:
 /opt/gaussian/g16/l1.exe "/data/abenidd/Elvis/pleiokomenine_C/NMR_HF/1a/1_pleiokomenine_1a_c_16/Gau-24689.inp" -scrdir="/data/abenidd/Elvis/pleiokomenine_C/NMR_HF/1a/1_pleiokomenine_1a_c_16/"
 Entering Link 1 = /opt/gaussian/g16/l1.exe PID=     24691.
  
 Copyright (c) 1988-2017, Gaussian, Inc.  All Rights Reserved.
  
 This is part of the Gaussian(R) 16 program.  It is based on
 the Gaussian(R) 09 system (copyright 2009, Gaussian, Inc.),
 the Gaussian(R) 03 system (copyright 2003, Gaussian, Inc.),
 the Gaussian(R) 98 system (copyright 1998, Gaussian, Inc.),
 the Gaussian(R) 94 system (copyright 1995, Gaussian, Inc.),
 the Gaussian 92(TM) system (copyright 1992, Gaussian, Inc.),
 the Gaussian 90(TM) system (copyright 1990, Gaussian, Inc.),
 the Gaussian 88(TM) system (copyright 1988, Gaussian, Inc.),
 the Gaussian 86(TM) system (copyright 1986, Carnegie Mellon
 University), and the Gaussian 82(TM) system (copyright 1983,
 Carnegie Mellon University). Gaussian is a federally registered
 trademark of Gaussian, Inc.
  
 This software contains proprietary and confidential information,
 including trade secrets, belonging to Gaussian, Inc.
  
 This software is provided under written license and may be
 used, copied, transmitted, or stored only in accord with that
 written license.
  
 The following legend is applicable only to US Government
 contracts under FAR:
  
                    RESTRICTED RIGHTS LEGEND
  
 Use, reproduction and disclosure by the US Government is
 subject to restrictions as set forth in subparagraphs (a)
 and (c) of the Commercial Computer Software - Restricted
 Rights clause in FAR 52.227-19.
  
 Gaussian, Inc.
 340 Quinnipiac St., Bldg. 40, Wallingford CT 06492
  
  
 ---------------------------------------------------------------
 Warning -- This program may not be used in any manner that
 competes with the business of Gaussian, Inc. or will provide
 assistance to any competitor of Gaussian, Inc.  The licensee
 of this program is prohibited from giving any competitor of
 Gaussian, Inc. access to this program.  By using this program,
 the user acknowledges that Gaussian, Inc. is engaged in the
 business of creating and licensing software in the field of
 computational chemistry and represents and warrants to the
 licensee that it is not a competitor of Gaussian, Inc. and that
 it will not use this program in any manner prohibited above.
 ---------------------------------------------------------------
  

 Cite this work as:
 Gaussian 16, Revision B.01,
 M. J. Frisch, G. W. Trucks, H. B. Schlegel, G. E. Scuseria, 
 M. A. Robb, J. R. Cheeseman, G. Scalmani, V. Barone, 
 G. A. Petersson, H. Nakatsuji, X. Li, M. Caricato, A. V. Marenich, 
 J. Bloino, B. G. Janesko, R. Gomperts, B. Mennucci, H. P. Hratchian, 
 J. V. Ortiz, A. F. Izmaylov, J. L. Sonnenberg, D. Williams-Young, 
 F. Ding, F. Lipparini, F. Egidi, J. Goings, B. Peng, A. Petrone, 
 T. Henderson, D. Ranasinghe, V. G. Zakrzewski, J. Gao, N. Rega, 
 G. Zheng, W. Liang, M. Hada, M. Ehara, K. Toyota, R. Fukuda, 
 J. Hasegawa, M. Ishida, T. Nakajima, Y. Honda, O. Kitao, H. Nakai, 
 T. Vreven, K. Throssell, J. A. Montgomery, Jr., J. E. Peralta, 
 F. Ogliaro, M. J. Bearpark, J. J. Heyd, E. N. Brothers, K. N. Kudin, 
 V. N. Staroverov, T. A. Keith, R. Kobayashi, J. Normand, 
 K. Raghavachari, A. P. Rendell, J. C. Burant, S. S. Iyengar, 
 J. Tomasi, M. Cossi, J. M. Millam, M. Klene, C. Adamo, R. Cammi, 
 J. W. Ochterski, R. L. Martin, K. Morokuma, O. Farkas, 
 J. B. Foresman, and D. J. Fox, Gaussian, Inc., Wallingford CT, 2016.
 
 ******************************************
 Gaussian 16:  ES64L-G16RevB.01 20-Dec-2017
                30-May-2024 
 ******************************************
 %nprocshared=8
 Will use up to    8 processors via shared memory.
 ----------------------------------------------
 # nmr=giao hf/sto-3g pop=nbo geom=connectivity
 ----------------------------------------------
 1/38=1,57=2,172=1/1;
 2/12=2,17=6,18=5,40=1/2;
 3/6=3,11=9,25=1,30=1/1,2,3,8;
 4//1;
 5/5=2,38=5/2;
 8/6=1,10=90,11=11/1;
 10/13=100,45=16/2;
 6/7=2,8=2,9=2,10=2,28=1,40=1,64=1/1,7;
 99/9=1/99;
 ------------------
 pleiokomenine_C_1a
 ------------------
 Symbolic Z-matrix:
 Charge =  0 Multiplicity = 1
 C                     0.        0.        0. 
 C                     1.4027    0.        0. 
 C                     2.0906    1.2328    0. 
 C                     1.4051    2.454    -0.0592 
 C                     0.0243    2.4405   -0.135 
 C                    -0.6643    1.2124   -0.0853 
 N                    -0.8622    3.5453   -0.3025 
 C                    -2.1436    1.5021   -0.0985 
 C                    -2.069     2.8764   -0.8574 
 C                    -3.1288    0.5874   -0.8277 
 C                    -1.8206    2.6049   -2.4139 
 C                    -2.9156    1.7269   -3.0213 
 C                    -3.9162    1.3332   -1.9293 
 N                    -4.1057    0.225     0.1992 
 C                    -4.9845   -0.8425   -0.2183 
 C                    -5.8354   -0.2991   -1.379 
 C                    -5.0013    0.3786   -2.4826 
 C                    -2.5888    1.4169    1.3848 
 C                    -3.3906    0.1145    1.4486 
 C                    -4.5219    2.6663   -1.3631 
 C                    -3.4125    3.6358   -0.8348 
 C                    -3.807     4.312     0.4683 
 O                    -4.8124    4.0587    1.1205 
 O                    -2.9426    5.3203    0.7721 
 C                    -3.2292    5.9904    1.9988 
 C                    -0.3069    4.7336   -0.9319 
 C                     2.1883   -1.2984    0.0348 
 C                     1.5995   -2.4159   -0.804 
 C                     1.3799   -2.2262   -2.1765 
 C                     1.2597   -3.6494   -0.213 
 C                     0.6646   -4.6719   -0.962 
 C                     0.3926   -4.4518   -2.3018 
 C                     0.7728   -3.2391   -2.9022 
 N                    -0.2803   -5.3123   -3.2097 
 C                     0.4376   -3.2921   -4.3729 
 C                    -0.7164   -4.3713   -4.2684 
 C                    -0.1064   -2.0487   -5.0987 
 C                    -2.0556   -3.6425   -3.8062 
 C                    -2.4981   -2.5891   -4.8311 
 C                    -1.3957   -2.436    -5.8996 
 N                     1.0531   -1.5269   -5.9294 
 C                     0.6376   -0.6205   -7.0582 
 C                    -0.582    -1.0621   -7.8433 
 C                    -1.7533   -1.3407   -6.9089 
 C                     1.749    -3.6467   -5.1196 
 C                     1.7991   -2.7525   -6.3519 
 C                    -1.3294   -3.8285   -6.6158 
 C                    -1.0731   -4.9929   -5.6271 
 C                    -0.1038   -6.0163   -6.1919 
 O                     0.6575   -5.8092   -7.1292 
 O                    -0.2439   -7.2158   -5.5647 
 C                     0.6652   -8.2215   -6.0125 
 C                    -1.1993   -6.2816   -2.6311 
 O                     1.8877   -0.7675   -5.1219 
 H                    -0.5583   -0.9298    0.0447 
 H                     3.1785    1.2466    0.0266 
 H                     1.9638    3.3823   -0.0736 
 H                    -2.6213   -0.3009   -1.2287 
 H                    -0.8487    2.134    -2.6069 
 H                    -1.7844    3.5573   -2.9595 
 H                    -3.4188    2.2653   -3.8341 
 H                    -2.4605    0.8375   -3.475 
 H                    -4.4247   -1.7325   -0.5295 
 H                    -5.6532   -1.1392    0.5975 
 H                    -6.5554    0.4295   -0.9844 
 H                    -6.4254   -1.1137   -1.8146 
 H                    -4.5175   -0.4142   -3.068 
 H                    -5.667     0.9111   -3.1722 
 H                    -3.2361    2.2436    1.6737 
 H                    -1.7671    1.3952    2.1105 
 H                    -2.7365   -0.7641    1.4799 
 H                    -4.0566    0.1012    2.3163 
 H                    -5.0764    3.1776   -2.1619 
 H                    -5.266     2.448    -0.5903 
 H                    -3.3659    4.4689   -1.5529 
 H                    -3.2271    5.2834    2.8346 
 H                    -2.4434    6.7309    2.1716 
 H                    -4.1889    6.5122    1.9331 
 H                     0.2131    4.5021   -1.8683 
 H                     0.3959    5.2308   -0.2547 
 H                    -1.0967    5.4563   -1.1585 
 H                     2.267    -1.6105    1.0838 
 H                     3.2129   -1.1284   -0.3201 
 H                     1.6703   -1.2962   -2.6615 
 H                     1.4467   -3.8156    0.8457 
 H                     0.4083   -5.6077   -0.4791 
 H                    -0.3365   -1.2267   -4.4063 
 H                    -2.8655   -4.3717   -3.6752 
 H                    -1.9406   -3.1592   -2.8279 
 H                    -3.448    -2.89     -5.2907 
 H                    -2.6917   -1.6377   -4.3212 
 H                     0.4335    0.3516   -6.5903 
 H                     1.5159   -0.5101   -7.704 
 H                    -0.8626   -0.2678   -8.545 
 H                    -0.3474   -1.9387   -8.4542 
 H                    -2.0214   -0.416    -6.3812 
 H                    -2.6325   -1.6287   -7.4978 
 H                     2.6274   -3.395    -4.508 
 H                     1.8731   -4.7034   -5.3513 
 H                     2.817    -2.456    -6.6251 
 H                     1.3029   -3.1776   -7.2215 
 H                    -0.6095   -3.8227   -7.4334 
 H                    -2.2926   -4.018    -7.1119 
 H                    -2.0236   -5.5412   -5.5383 
 H                     0.472    -8.4704   -7.0605 
 H                     0.5033   -9.1178   -5.4074 
 H                     1.7005   -7.8938   -5.875 
 H                    -1.7756   -6.7852   -3.413 
 H                    -0.6461   -7.0587   -2.0927 
 H                    -1.9103   -5.814    -1.9406 
 
 Stoichiometry    C45H56N4O5
 Framework group  C1[X(C45H56N4O5)]
 Deg. of freedom   324
 Full point group                 C1      NOp   1
 Largest Abelian subgroup         C1      NOp   1
 Largest concise Abelian subgroup C1      NOp   1
                         Standard orientation:                         
 ---------------------------------------------------------------------
 Center     Atomic      Atomic             Coordinates (Angstroms)
 Number     Number       Type             X           Y           Z
 ---------------------------------------------------------------------
      1          6           0        1.748359    2.256013   -0.545967
      2          6           0        1.343833    3.425652    0.114238
      3          6           0        2.111216    3.904125    1.198299
      4          6           0        3.232994    3.205930    1.666146
      5          6           0        3.578895    2.014163    1.055752
      6          6           0        2.842759    1.561908   -0.057100
      7          7           0        4.607826    1.098152    1.425544
      8          6           0        3.489058    0.298826   -0.566366
      9          6           0        4.126335   -0.159813    0.795149
     10          6           0        2.655136   -0.850658   -1.134070
     11          6           0        2.985047   -0.782475    1.726740
     12          6           0        2.278601   -1.959776    1.053137
     13          6           0        2.859964   -2.166886   -0.349641
     14          7           0        3.218343   -1.076004   -2.465313
     15          6           0        2.405646   -1.954609   -3.273848
     16          6           0        2.437689   -3.340470   -2.606840
     17          6           0        2.120440   -3.300451   -1.099960
     18          6           0        4.367363    0.744903   -1.764379
     19          6           0        3.613430    0.211696   -2.985229
     20          6           0        4.390716   -2.465349   -0.169837
     21          6           0        5.121140   -1.326336    0.616884
     22          6           0        6.482086   -0.995229    0.026004
     23          8           0        6.932682   -1.457559   -1.014943
     24          8           0        7.189959   -0.186208    0.862994
     25          6           0        8.472946    0.193583    0.367343
     26          6           0        5.032061    1.125479    2.816887
     27          6           0        0.119275    4.199936   -0.338710
     28          6           0       -1.048179    3.336734   -0.775757
     29          6           0       -1.591894    2.388811    0.103892
     30          6           0       -1.591114    3.471602   -2.069318
     31          6           0       -2.632887    2.644898   -2.507404
     32          6           0       -3.119672    1.668808   -1.654303
     33          6           0       -2.609859    1.564095   -0.348623
     34          7           0       -4.099585    0.677879   -1.928836
     35          6           0       -3.364431    0.484834    0.388901
     36          6           0       -3.819531   -0.337032   -0.885747
     37          6           0       -2.633078   -0.461431    1.357648
     38          6           0       -2.607908   -1.257335   -1.358238
     39          6           0       -2.219346   -2.267782   -0.270170
     40          6           0       -3.005614   -1.944376    1.017312
     41          7           0       -3.016050    0.011113    2.749342
     42          6           0       -2.807638   -1.022267    3.825020
     43          6           0       -3.234114   -2.434266    3.474032
     44          6           0       -2.600123   -2.878736    2.161337
     45          6           0       -4.431528    1.197580    1.258596
     46          6           0       -4.423932    0.496811    2.611199
     47          6           0       -4.509926   -2.173093    0.641644
     48          6           0       -4.951677   -1.329128   -0.579677
     49          6           0       -6.343900   -0.750612   -0.398232
     50          8           0       -6.917259   -0.644087    0.679223
     51          8           0       -6.897860   -0.432062   -1.599674
     52          6           0       -8.194439    0.158840   -1.509472
     53          6           0       -4.275337    0.302617   -3.324247
     54          8           0       -2.217248    1.089800    3.100982
     55          1           0        1.205579    1.886656   -1.410369
     56          1           0        1.822931    4.824743    1.702065
     57          1           0        3.791165    3.592297    2.510693
     58          1           0        1.592112   -0.578109   -1.190015
     59          1           0        2.229600   -0.041209    2.015548
     60          1           0        3.420321   -1.123993    2.675401
     61          1           0        2.397996   -2.865169    1.661197
     62          1           0        1.200811   -1.759640    1.005104
     63          1           0        1.375648   -1.589236   -3.362888
     64          1           0        2.815214   -2.043414   -4.286315
     65          1           0        3.433365   -3.781387   -2.745363
     66          1           0        1.729860   -4.007669   -3.112058
     67          1           0        1.037540   -3.155822   -0.991811
     68          1           0        2.349907   -4.273552   -0.649760
     69          1           0        5.360729    0.299265   -1.741491
     70          1           0        4.512940    1.828399   -1.848915
     71          1           0        2.753737    0.842023   -3.238964
     72          1           0        4.272807    0.131641   -3.854395
     73          1           0        4.511383   -3.403776    0.388530
     74          1           0        4.859772   -2.646578   -1.142309
     75          1           0        5.364982   -1.744260    1.605709
     76          1           0        8.378647    0.706716   -0.595058
     77          1           0        8.921569    0.886127    1.084840
     78          1           0        9.122317   -0.682837    0.278902
     79          1           0        4.185190    1.065133    3.509711
     80          1           0        5.591728    2.043280    3.027006
     81          1           0        5.701232    0.287284    3.033836
     82          1           0        0.429628    4.862999   -1.156041
     83          1           0       -0.238431    4.847200    0.472311
     84          1           0       -1.214113    2.294108    1.120145
     85          1           0       -1.192356    4.219014   -2.751817
     86          1           0       -3.026203    2.767335   -3.509859
     87          1           0       -1.541556   -0.338283    1.319401
     88          1           0       -2.873466   -1.804798   -2.271800
     89          1           0       -1.723838   -0.664024   -1.623337
     90          1           0       -2.434168   -3.287841   -0.612830
     91          1           0       -1.137459   -2.223934   -0.096281
     92          1           0       -1.729630   -1.011727    4.033234
     93          1           0       -3.330002   -0.651394    4.713977
     94          1           0       -2.917276   -3.113067    4.274578
     95          1           0       -4.324835   -2.504903    3.429300
     96          1           0       -1.507867   -2.885220    2.272464
     97          1           0       -2.896417   -3.911509    1.941495
     98          1           0       -4.150943    2.244894    1.441353
     99          1           0       -5.422695    1.255961    0.811518
    100          1           0       -4.635624    1.173382    3.445530
    101          1           0       -5.092627   -0.359441    2.664185
    102          1           0       -5.163140   -2.020131    1.499941
    103          1           0       -4.653738   -3.232788    0.384457
    104          1           0       -5.058205   -2.030855   -1.421223
    105          1           0       -8.910704   -0.555861   -1.092642
    106          1           0       -8.516755    0.423736   -2.520241
    107          1           0       -8.160589    1.071990   -0.906852
    108          1           0       -4.934144   -0.566434   -3.412710
    109          1           0       -4.747224    1.118143   -3.882843
    110          1           0       -3.323809    0.051077   -3.806203
 ---------------------------------------------------------------------
 Rotational constants (GHZ):           0.1004073           0.0331991           0.0324332
 Standard basis: STO-3G (5D, 7F)
 There are   326 symmetry adapted cartesian basis functions of A   symmetry.
 There are   326 symmetry adapted basis functions of A   symmetry.
   326 basis functions,   978 primitive gaussians,   326 cartesian basis functions
   197 alpha electrons      197 beta electrons
       nuclear repulsion energy      8221.4373155344 Hartrees.
 NAtoms=  110 NActive=  110 NUniq=  110 SFac= 1.00D+00 NAtFMM=   60 NAOKFM=T Big=T
 Integral buffers will be    131072 words long.
 Raffenetti 1 integral format.
 Two-electron integral symmetry is turned on.
 One-electron integrals computed using PRISM.
 NBasis=   326 RedAO= T EigKep=  1.73D-01  NBF=   326
 NBsUse=   326 1.00D-06 EigRej= -1.00D+00 NBFU=   326
 ExpMin= 1.69D-01 ExpMax= 1.31D+02 ExpMxC= 1.31D+02 IAcc=3 IRadAn=         5 AccDes= 0.00D+00
 Harris functional with IExCor=  205 and IRadAn=       5 diagonalized for initial guess.
 HarFok:  IExCor=  205 AccDes= 0.00D+00 IRadAn=         5 IDoV= 1 UseB2=F ITyADJ=14
 ICtDFT=  3500011 ScaDFX=  1.000000  1.000000  1.000000  1.000000
 FoFCou: FMM=F IPFlag=           0 FMFlag=      100000 FMFlg1=        2001
         NFxFlg=           0 DoJE=T BraDBF=F KetDBF=T FulRan=T
         wScrn=  0.000000 ICntrl=       500 IOpCl=  0 I1Cent=   200000004 NGrid=           0
         NMat0=    1 NMatS0=      1 NMatT0=    0 NMatD0=    1 NMtDS0=    0 NMtDT0=    0
 Petite list used in FoFCou.
 Requested convergence on RMS density matrix=1.00D-08 within 128 cycles.
 Requested convergence on MAX density matrix=1.00D-06.
 Requested convergence on             energy=1.00D-06.
 No special actions if energy rises.
 Integral accuracy reduced to 1.0D-05 until final iterations.
 Initial convergence to 1.0D-05 achieved.  Increase integral accuracy.
 SCF Done:  E(RHF) =  -2300.21935107     A.U. after   16 cycles
            NFock= 16  Conv=0.39D-08     -V/T= 2.0092
 Range of M.O.s used for correlation:     1   326
 NBasis=   326 NAE=   197 NBE=   197 NFC=     0 NFV=     0
 NROrb=    326 NOA=   197 NOB=   197 NVA=   129 NVB=   129
          Differentiating once with respect to magnetic field using GIAOs.
          Electric field/nuclear overlap derivatives assumed to be zero.
 FoFCou: FMM=F IPFlag=           0 FMFlag=      100000 FMFlg1=        2001
         NFxFlg=           0 DoJE=F BraDBF=F KetDBF=T FulRan=T
         wScrn=  0.000000 ICntrl=      6100 IOpCl=  0 I1Cent=           7 NGrid=         110
         NMat0=    1 NMatS0=      1 NMatT0=    0 NMatD0=    1 NMtDS0=    0 NMtDT0=    0
 Symmetry not used in FoFCou.
 FoFJK:  IHMeth= 1 ICntrl=    6127 DoSepK=F KAlg= 0 I1Cent=           0 FoldK=F
 IRaf=         1 NMat=       1 IRICut=       1 DoRegI=T DoRafI=F ISym2E= 0 IDoP0=0 IntGTp=1.
          There are     3 degrees of freedom in the 1st order CPHF.  IDoFFX=0 NUNeed=     3.
      3 vectors produced by pass  0 Test12= 8.47D-13 3.33D-08 XBig12= 1.49D+02 2.61D+00.
 AX will form     3 AO Fock derivatives at one time.
      3 vectors produced by pass  1 Test12= 8.47D-13 3.33D-08 XBig12= 6.51D-01 3.20D-01.
      3 vectors produced by pass  2 Test12= 8.47D-13 3.33D-08 XBig12= 1.82D-02 3.01D-02.
      3 vectors produced by pass  3 Test12= 8.47D-13 3.33D-08 XBig12= 4.95D-04 5.29D-03.
      3 vectors produced by pass  4 Test12= 8.47D-13 3.33D-08 XBig12= 1.69D-05 6.94D-04.
      3 vectors produced by pass  5 Test12= 8.47D-13 3.33D-08 XBig12= 2.65D-07 8.83D-05.
      3 vectors produced by pass  6 Test12= 8.47D-13 3.33D-08 XBig12= 9.03D-09 1.77D-05.
      3 vectors produced by pass  7 Test12= 8.47D-13 3.33D-08 XBig12= 3.06D-10 3.68D-06.
      3 vectors produced by pass  8 Test12= 8.47D-13 3.33D-08 XBig12= 6.30D-12 2.73D-07.
      3 vectors produced by pass  9 Test12= 8.47D-13 3.33D-08 XBig12= 1.01D-13 5.25D-08.
 InvSVY:  IOpt=1 It=  1 EMax= 8.88D-15
 Solved reduced A of dimension    30 with     3 vectors.
 Calculating GIAO nuclear magnetic shielding tensors.
 SCF GIAO Magnetic shielding tensor (ppm):
      1  C    Isotropic =   126.9720   Anisotropy =   151.6702
   XX=   139.3194   YX=    22.7622   ZX=   -68.0194
   XY=    18.6035   YY=   137.5185   ZY=   -60.1971
   XZ=   -74.4730   YZ=   -57.9943   ZZ=   104.0779
   Eigenvalues:    34.9175   117.9130   228.0854
      2  C    Isotropic =   118.1099   Anisotropy =   161.7023
   XX=   104.6148   YX=    67.2212   ZX=   -51.0158
   XY=    66.2312   YY=   116.0396   ZY=   -38.2838
   XZ=   -62.5775   YZ=   -37.8301   ZZ=   133.6753
   Eigenvalues:    39.2083    89.2101   225.9114
      3  C    Isotropic =   118.6628   Anisotropy =   152.6879
   XX=   142.3837   YX=    53.1230   ZX=   -27.9387
   XY=    58.7575   YY=    80.0131   ZY=   -63.3668
   XZ=   -31.8082   YZ=   -67.8375   ZZ=   133.5916
   Eigenvalues:    26.6104   108.9233   220.4548
      4  C    Isotropic =   133.1366   Anisotropy =   144.5171
   XX=   141.7948   YX=    21.2748   ZX=   -66.3162
   XY=    24.5857   YY=   141.8705   ZY=   -48.4457
   XZ=   -66.9094   YZ=   -60.2784   ZZ=   115.7444
   Eigenvalues:    50.5632   119.3652   229.4813
      5  C    Isotropic =   108.1849   Anisotropy =   128.9910
   XX=   101.6443   YX=    59.7215   ZX=   -48.9544
   XY=    45.8231   YY=   108.4412   ZY=   -21.7956
   XZ=   -57.2216   YZ=   -22.3519   ZZ=   114.4693
   Eigenvalues:    40.9918    89.3841   194.1789
      6  C    Isotropic =   118.2095   Anisotropy =   142.5305
   XX=   132.5479   YX=    39.0504   ZX=   -45.7545
   XY=    46.5586   YY=    90.2837   ZY=   -55.8221
   XZ=   -36.4782   YZ=   -56.2721   ZZ=   131.7969
   Eigenvalues:    48.8490    92.5497   213.2298
      7  N    Isotropic =   271.9830   Anisotropy =    81.3724
   XX=   267.1477   YX=   -25.6225   ZX=    16.1450
   XY=   -29.4291   YY=   307.4383   ZY=   -25.2365
   XZ=     1.8681   YZ=   -11.0218   ZZ=   241.3631
   Eigenvalues:   236.5333   253.1844   326.2313
      8  C    Isotropic =   198.6859   Anisotropy =    13.7420
   XX=   202.1863   YX=     3.1476   ZX=    -0.3811
   XY=     4.8493   YY=   191.0109   ZY=     1.2000
   XZ=     7.9657   YZ=     5.1525   ZZ=   202.8604
   Eigenvalues:   189.4360   198.7745   207.8472
      9  C    Isotropic =   180.1047   Anisotropy =    43.0288
   XX=   173.6215   YX=    13.2355   ZX=    18.5461
   XY=    -4.9526   YY=   191.8202   ZY=    20.5436
   XZ=    22.6902   YZ=    12.5387   ZZ=   174.8725
   Eigenvalues:   151.5477   179.9759   208.7906
     10  C    Isotropic =   189.3890   Anisotropy =    31.1181
   XX=   182.0037   YX=     8.7485   ZX=    -5.7330
   XY=     1.8226   YY=   177.1409   ZY=     4.5486
   XZ=    -3.6653   YZ=     3.6870   ZZ=   209.0224
   Eigenvalues:   172.7544   185.2783   210.1344
     11  C    Isotropic =   212.8027   Anisotropy =    21.4943
   XX=   216.3274   YX=     6.1436   ZX=   -12.2360
   XY=     9.8042   YY=   210.3680   ZY=    -3.0860
   XZ=    -4.8569   YZ=    -3.7120   ZZ=   211.7127
   Eigenvalues:   203.6515   207.6244   227.1322
     12  C    Isotropic =   214.4920   Anisotropy =    17.4531
   XX=   213.2224   YX=     3.1332   ZX=    -3.8065
   XY=     0.6864   YY=   207.8485   ZY=     6.5693
   XZ=    -5.2797   YZ=     7.1375   ZZ=   222.4051
   Eigenvalues:   203.7854   213.5632   226.1274
     13  C    Isotropic =   211.1435   Anisotropy =     7.2365
   XX=   213.8134   YX=     2.7583   ZX=    -1.2041
   XY=     1.9866   YY=   212.9646   ZY=     1.6137
   XZ=     2.2727   YZ=     0.9981   ZZ=   206.6525
   Eigenvalues:   206.3924   211.0702   215.9678
     14  N    Isotropic =   300.7985   Anisotropy =    58.9825
   XX=   263.1754   YX=    28.2269   ZX=   -17.5735
   XY=    34.7634   YY=   301.5083   ZY=     6.5080
   XZ=    -9.5799   YZ=     5.7598   ZZ=   337.7116
   Eigenvalues:   243.1436   319.1316   340.1201
     15  C    Isotropic =   202.6239   Anisotropy =    37.8843
   XX=   197.8602   YX=    11.2517   ZX=    10.0249
   XY=    11.3825   YY=   210.2715   ZY=    14.6964
   XZ=    11.0526   YZ=    13.4734   ZZ=   199.7400
   Eigenvalues:   188.0288   191.9628   227.8801
     16  C    Isotropic =   219.6176   Anisotropy =     8.0418
   XX=   211.6256   YX=     2.9674   ZX=    -1.1984
   XY=    -0.8584   YY=   224.5277   ZY=     0.1761
   XZ=    -3.5717   YZ=    -1.4508   ZZ=   222.6997
   Eigenvalues:   211.0727   222.8014   224.9788
     17  C    Isotropic =   214.1768   Anisotropy =    21.1610
   XX=   210.7825   YX=     5.7795   ZX=     2.7131
   XY=     8.6581   YY=   215.9764   ZY=    10.7151
   XZ=     2.6616   YZ=     8.3184   ZZ=   215.7715
   Eigenvalues:   204.0750   210.1713   228.2841
     18  C    Isotropic =   209.6491   Anisotropy =    31.2546
   XX=   199.3304   YX=    17.2197   ZX=   -10.5528
   XY=    11.2893   YY=   202.8980   ZY=    -0.2206
   XZ=   -10.3557   YZ=     5.1188   ZZ=   226.7189
   Eigenvalues:   184.5824   213.8794   230.4855
     19  C    Isotropic =   200.1366   Anisotropy =    40.3549
   XX=   187.5427   YX=    18.1129   ZX=    -1.1283
   XY=    20.9832   YY=   214.7447   ZY=   -11.2560
   XZ=    -5.5099   YZ=    -2.7840   ZZ=   198.1223
   Eigenvalues:   177.3247   196.0452   227.0398
     20  C    Isotropic =   212.3290   Anisotropy =    22.2518
   XX=   225.6111   YX=     1.1319   ZX=     5.9545
   XY=     0.9001   YY=   212.2186   ZY=     4.6132
   XZ=     6.2376   YZ=     2.6520   ZZ=   199.1572
   Eigenvalues:   197.0821   212.7414   227.1635
     21  C    Isotropic =   208.2332   Anisotropy =    12.6186
   XX=   215.8027   YX=     1.6573   ZX=    -0.1883
   XY=    -4.5321   YY=   209.3313   ZY=     0.4334
   XZ=    -6.4461   YZ=    -2.8967   ZZ=   199.5656
   Eigenvalues:   198.7048   209.3492   216.6456
     22  C    Isotropic =    96.9853   Anisotropy =    98.6912
   XX=    26.1637   YX=   -75.1333   ZX=   -18.8959
   XY=   -86.2755   YY=   111.9257   ZY=    -9.1435
   XZ=   -37.8680   YZ=   -17.2432   ZZ=   152.8666
   Eigenvalues:   -27.7102   155.8867   162.7795
     23  O    Isotropic =  -136.1411   Anisotropy =   887.3491
   XX=  -219.3520   YX=  -175.4695   ZX=   210.8475
   XY=  -178.2888   YY=   128.5975   ZY=  -394.6597
   XZ=   195.9384   YZ=  -392.3073   ZZ=  -317.6687
   Eigenvalues:  -573.3554  -290.4928   455.4250
     24  O    Isotropic =   284.5756   Anisotropy =   138.1898
   XX=   200.7650   YX=   -45.9718   ZX=    65.5958
   XY=    39.4894   YY=   362.8538   ZY=   -17.9014
   XZ=   168.8538   YZ=    43.8581   ZZ=   290.1081
   Eigenvalues:   119.5743   357.4505   376.7022
     25  C    Isotropic =   197.3632   Anisotropy =    58.0396
   XX=   227.4412   YX=    14.6224   ZX=   -14.1609
   XY=    14.9781   YY=   182.2962   ZY=    -5.4425
   XZ=   -14.1518   YZ=    -4.6565   ZZ=   182.3523
   Eigenvalues:   177.2449   178.7886   236.0563
     26  C    Isotropic =   209.6726   Anisotropy =    41.5184
   XX=   204.8827   YX=    -0.3566   ZX=    12.8957
   XY=     2.0067   YY=   192.3620   ZY=     2.5961
   XZ=    13.5072   YZ=     2.8915   ZZ=   231.7732
   Eigenvalues:   192.1709   199.4954   237.3516
     27  C    Isotropic =   206.2198   Anisotropy =    20.6158
   XX=   213.9657   YX=     3.2443   ZX=     9.0217
   XY=     1.2092   YY=   207.4900   ZY=    -0.1978
   XZ=    13.3874   YZ=     1.1090   ZZ=   197.2036
   Eigenvalues:   191.5703   207.1254   219.9636
     28  C    Isotropic =   117.9377   Anisotropy =   163.9481
   XX=   120.5271   YX=   -82.5854   ZX=   -33.6984
   XY=   -88.3426   YY=   135.7015   ZY=    20.5127
   XZ=   -42.9418   YZ=    21.5567   ZZ=    97.5845
   Eigenvalues:    38.3170    88.2597   227.2365
     29  C    Isotropic =   121.0467   Anisotropy =   161.3603
   XX=   151.6407   YX=   -55.5776   ZX=   -45.6364
   XY=   -49.7632   YY=   161.4064   ZY=    35.2251
   XZ=   -53.4597   YZ=    32.1981   ZZ=    50.0930
   Eigenvalues:    28.7078   105.8121   228.6202
     30  C    Isotropic =   118.4414   Anisotropy =   152.6092
   XX=   145.8000   YX=   -71.8138   ZX=    -4.0105
   XY=   -72.4627   YY=   118.9982   ZY=    57.8917
   XZ=    -3.8581   YZ=    61.6189   ZZ=    90.5261
   Eigenvalues:    25.2522   109.8912   220.1809
     31  C    Isotropic =   134.4831   Anisotropy =   142.7625
   XX=   162.8297   YX=   -46.2777   ZX=   -44.3703
   XY=   -46.5696   YY=   168.5252   ZY=    24.6588
   XZ=   -43.9187   YZ=    35.8089   ZZ=    72.0944
   Eigenvalues:    52.9598   120.8315   229.6581
     32  C    Isotropic =   109.1360   Anisotropy =   127.8489
   XX=   117.2267   YX=   -72.6043   ZX=   -28.8587
   XY=   -63.5702   YY=   118.2442   ZY=     8.0901
   XZ=   -39.4888   YZ=     6.3969   ZZ=    91.9371
   Eigenvalues:    41.4229    91.6165   194.3685
     33  C    Isotropic =   119.5764   Anisotropy =   137.8738
   XX=   141.7415   YX=   -58.0678   ZX=   -24.8509
   XY=   -58.1163   YY=   125.3517   ZY=    50.9863
   XZ=   -13.0056   YZ=    49.1153   ZZ=    91.6361
   Eigenvalues:    50.0748    97.1623   211.4923
     34  N    Isotropic =   274.9188   Anisotropy =    80.7706
   XX=   266.4294   YX=    31.3385   ZX=    13.9806
   XY=    27.9515   YY=   314.3916   ZY=     8.4497
   XZ=    -0.7410   YZ=    -5.1046   ZZ=   243.9355
   Eigenvalues:   241.2217   254.7689   328.7659
     35  C    Isotropic =   195.6216   Anisotropy =    13.2711
   XX=   197.8220   YX=    -0.6112   ZX=     1.2840
   XY=    -3.1034   YY=   187.1154   ZY=     0.5486
   XZ=     6.4210   YZ=    -2.9548   ZZ=   201.9276
   Eigenvalues:   186.7807   195.6152   204.4690
     36  C    Isotropic =   181.3509   Anisotropy =    43.5415
   XX=   165.1126   YX=    -3.8899   ZX=    15.0920
   XY=    13.5873   YY=   184.1878   ZY=   -19.8933
   XZ=    14.0302   YZ=   -16.7465   ZZ=   194.7523
   Eigenvalues:   153.9971   179.6770   210.3785
     37  C    Isotropic =   180.2212   Anisotropy =    45.7670
   XX=   171.5253   YX=    -4.3376   ZX=   -10.5353
   XY=   -10.3465   YY=   165.3691   ZY=     5.9299
   XZ=   -14.1944   YZ=    12.6574   ZZ=   203.7692
   Eigenvalues:   160.4580   169.4730   210.7325
     38  C    Isotropic =   213.8116   Anisotropy =    20.7514
   XX=   218.5142   YX=    -9.7173   ZX=    -7.5113
   XY=   -11.4361   YY=   213.1971   ZY=     1.0698
   XZ=    -0.9231   YZ=     1.0134   ZZ=   209.7236
   Eigenvalues:   204.2872   209.5018   227.6459
     39  C    Isotropic =   212.6247   Anisotropy =    21.1849
   XX=   212.4501   YX=    -3.0512   ZX=    -7.5128
   XY=    -2.0399   YY=   203.9536   ZY=    -0.0506
   XZ=    -9.4432   YZ=     1.7637   ZZ=   221.4703
   Eigenvalues:   203.0688   208.0573   226.7479
     40  C    Isotropic =   212.2285   Anisotropy =     8.4519
   XX=   212.4605   YX=    -3.3867   ZX=     2.2561
   XY=    -1.4546   YY=   214.6509   ZY=    -3.5980
   XZ=     1.6019   YZ=    -2.7159   ZZ=   209.5741
   Eigenvalues:   207.9215   210.9009   217.8631
     41  N    Isotropic =   234.8505   Anisotropy =    24.6858
   XX=   239.2486   YX=     2.9756   ZX=     7.3917
   XY=    16.4804   YY=   227.0558   ZY=    22.6299
   XZ=    -3.4919   YZ=     3.1433   ZZ=   238.2470
   Eigenvalues:   216.2686   236.9751   251.3077
     42  C    Isotropic =   195.0770   Anisotropy =    48.6427
   XX=   182.4987   YX=     3.2508   ZX=    10.7571
   XY=    -2.6118   YY=   199.2738   ZY=   -19.6703
   XZ=    11.9779   YZ=   -29.3903   ZZ=   203.4584
   Eigenvalues:   170.7763   186.9492   227.5054
     43  C    Isotropic =   223.0852   Anisotropy =    10.2130
   XX=   216.1488   YX=     1.2460   ZX=    -0.6945
   XY=     1.3985   YY=   224.3509   ZY=     2.0792
   XZ=    -2.1869   YZ=     2.8219   ZZ=   228.7560
   Eigenvalues:   215.6813   223.6805   229.8939
     44  C    Isotropic =   215.8744   Anisotropy =    18.1553
   XX=   212.1750   YX=    -0.4557   ZX=     2.5586
   XY=    -3.8877   YY=   211.5813   ZY=    -9.1783
   XZ=     3.2058   YZ=    -5.2243   ZZ=   223.8667
   Eigenvalues:   208.0887   211.5565   227.9779
     45  C    Isotropic =   211.2878   Anisotropy =    38.0728
   XX=   207.7350   YX=    -7.3716   ZX=   -23.4589
   XY=   -10.5787   YY=   204.8682   ZY=    -0.1733
   XZ=   -17.1499   YZ=    -0.8133   ZZ=   221.2601
   Eigenvalues:   189.2949   207.8988   236.6697
     46  C    Isotropic =   191.8523   Anisotropy =    53.4088
   XX=   216.5651   YX=   -25.4723   ZX=    -1.6637
   XY=   -24.5235   YY=   167.5095   ZY=    -6.7136
   XZ=     6.7518   YZ=    -0.7270   ZZ=   191.4823
   Eigenvalues:   156.8421   191.2567   227.4582
     47  C    Isotropic =   212.6457   Anisotropy =    22.5475
   XX=   223.0211   YX=    -0.3713   ZX=     9.3416
   XY=    -0.7866   YY=   209.3051   ZY=    -7.6989
   XZ=     9.2245   YZ=    -6.1342   ZZ=   205.6111
   Eigenvalues:   198.1276   212.1322   227.6774
     48  C    Isotropic =   209.5785   Anisotropy =    11.5037
   XX=   217.0786   YX=    -2.3677   ZX=     2.0125
   XY=     1.8597   YY=   211.8361   ZY=    -3.2793
   XZ=    -5.4436   YZ=    -1.3508   ZZ=   199.8208
   Eigenvalues:   199.2220   212.2659   217.2476
     49  C    Isotropic =    96.1898   Anisotropy =    99.2012
   XX=    42.7407   YX=    54.7020   ZX=   -63.4553
   XY=    56.3170   YY=   131.8592   ZY=    24.8352
   XZ=   -83.2185   YZ=    35.2812   ZZ=   113.9695
   Eigenvalues:   -28.0114   154.2568   162.3239
     50  O    Isotropic =  -133.7899   Anisotropy =   886.6442
   XX=  -233.0604   YX=   260.2147   ZX=   139.7373
   XY=   251.7653   YY=   351.0445   ZY=    58.7366
   XZ=   113.2712   YZ=    55.4111   ZZ=  -519.3538
   Eigenvalues:  -569.1056  -289.5703   457.3062
     51  O    Isotropic =   283.2907   Anisotropy =   138.8489
   XX=   177.4379   YX=    82.3141   ZX=    17.9041
   XY=    49.9193   YY=   334.1667   ZY=    -2.5846
   XZ=   152.2994   YZ=   -63.3844   ZZ=   338.2675
   Eigenvalues:   115.8336   358.1819   375.8567
     52  C    Isotropic =   197.1571   Anisotropy =    58.3683
   XX=   227.1756   YX=   -20.7248   ZX=     1.3241
   XY=   -20.9809   YY=   187.0254   ZY=     0.3263
   XZ=     1.1703   YZ=    -0.4151   ZZ=   177.2702
   Eigenvalues:   177.0638   178.3382   236.0693
     53  C    Isotropic =   209.8318   Anisotropy =    40.9640
   XX=   201.5031   YX=     2.2898   ZX=     6.4957
   XY=     0.1747   YY=   194.2594   ZY=     8.8633
   XZ=     7.7493   YZ=     9.0853   ZZ=   233.7331
   Eigenvalues:   192.3033   200.0511   237.1412
     54  O    Isotropic =     3.0017   Anisotropy =   517.2521
   XX=    25.3385   YX=   213.0777   ZX=    81.9792
   XY=   226.2401   YY=   131.5719   ZY=   135.6417
   XZ=    70.6596   YZ=   117.2572   ZZ=  -147.9052
   Eigenvalues:  -197.3792  -141.4520   347.8364
     55  H    Isotropic =    27.2762   Anisotropy =    15.6193
   XX=    32.3532   YX=    -5.7002   ZX=     0.6720
   XY=    -8.6316   YY=    28.0148   ZY=     0.7406
   XZ=    -0.7825   YZ=     0.9230   ZZ=    21.4604
   Eigenvalues:    21.1774    22.9620    37.6891
     56  H    Isotropic =    25.5851   Anisotropy =     6.1501
   XX=    26.2538   YX=    -0.6738   ZX=     3.9822
   XY=    -0.7354   YY=    25.7962   ZY=     1.9515
   XZ=     3.9617   YZ=     2.0718   ZZ=    24.7054
   Eigenvalues:    20.6464    26.4238    29.6852
     57  H    Isotropic =    26.3856   Anisotropy =     7.5816
   XX=    25.8077   YX=    -2.7971   ZX=     2.9725
   XY=    -2.2835   YY=    29.6516   ZY=     3.5993
   XZ=     2.5680   YZ=     2.9494   ZZ=    23.6976
   Eigenvalues:    20.0111    27.7058    31.4401
     58  H    Isotropic =    32.6673   Anisotropy =    12.8035
   XX=    40.1631   YX=    -2.5046   ZX=     1.7482
   XY=    -3.9822   YY=    30.9259   ZY=     1.5114
   XZ=    -0.1206   YZ=     0.5985   ZZ=    26.9130
   Eigenvalues:    26.4457    30.3533    41.2030
     59  H    Isotropic =    32.9500   Anisotropy =     8.6892
   XX=    35.3228   YX=    -0.1714   ZX=    -5.1686
   XY=    -3.0672   YY=    33.8778   ZY=     2.7668
   XZ=    -3.5036   YZ=     0.8049   ZZ=    29.6496
   Eigenvalues:    27.2010    32.9063    38.7428
     60  H    Isotropic =    32.1130   Anisotropy =    12.4502
   XX=    28.4107   YX=     3.1418   ZX=     2.5714
   XY=     1.4434   YY=    28.7420   ZY=    -2.8336
   XZ=     3.4206   YZ=    -2.9496   ZZ=    39.1864
   Eigenvalues:    25.0515    30.8744    40.4132
     61  H    Isotropic =    32.3575   Anisotropy =    13.6108
   XX=    28.3225   YX=     2.1293   ZX=    -0.9809
   XY=     1.7590   YY=    35.3813   ZY=    -6.5828
   XZ=    -0.9873   YZ=    -6.6943   ZZ=    33.3686
   Eigenvalues:    27.2815    28.3596    41.4313
     62  H    Isotropic =    32.9058   Anisotropy =    18.4045
   XX=    44.7724   YX=     1.0142   ZX=    -2.4810
   XY=    -0.2783   YY=    26.8400   ZY=     1.0977
   XZ=    -2.8916   YZ=     0.3058   ZZ=    27.1050
   Eigenvalues:    26.0199    27.5219    45.1755
     63  H    Isotropic =    32.8464   Anisotropy =    11.6620
   XX=    38.3221   YX=    -2.4824   ZX=     4.1272
   XY=    -2.0857   YY=    29.1053   ZY=     0.4043
   XZ=     4.4034   YZ=     0.3886   ZZ=    31.1116
   Eigenvalues:    27.6449    30.2731    40.6210
     64  H    Isotropic =    31.8770   Anisotropy =    15.3045
   XX=    26.2549   YX=     0.9788   ZX=    -2.6851
   XY=     0.1139   YY=    28.3701   ZY=     2.8369
   XZ=    -3.0887   YZ=     2.8373   ZZ=    41.0060
   Eigenvalues:    25.2826    28.2684    42.0800
     65  H    Isotropic =    31.9299   Anisotropy =    14.2935
   XX=    33.5827   YX=    -6.0409   ZX=    -2.7497
   XY=    -6.5396   YY=    32.8951   ZY=     3.9621
   XZ=    -2.8857   YZ=     4.0964   ZZ=    29.3117
   Eigenvalues:    26.2172    28.1135    41.4589
     66  H    Isotropic =    32.5804   Anisotropy =    16.0358
   XX=    30.4302   YX=     5.6658   ZX=     3.5821
   XY=     5.0937   YY=    35.2871   ZY=     6.2353
   XZ=     3.2245   YZ=     6.3111   ZZ=    32.0239
   Eigenvalues:    26.6948    27.7755    43.2709
     67  H    Isotropic =    32.8349   Anisotropy =    15.1943
   XX=    42.4272   YX=     2.0435   ZX=    -2.3413
   XY=     1.5591   YY=    28.0256   ZY=     2.1205
   XZ=    -2.4824   YZ=     1.9958   ZZ=    28.0519
   Eigenvalues:    25.4568    30.0835    42.9644
     68  H    Isotropic =    32.3673   Anisotropy =    13.8673
   XX=    27.0335   YX=     0.3697   ZX=     0.6849
   XY=     0.2903   YY=    40.8563   ZY=    -3.0864
   XZ=     0.5524   YZ=    -3.0277   ZZ=    29.2121
   Eigenvalues:    26.7596    28.7301    41.6121
     69  H    Isotropic =    32.5017   Anisotropy =    13.1162
   XX=    40.9534   YX=    -2.0200   ZX=    -0.3722
   XY=    -2.1938   YY=    25.8730   ZY=    -2.4715
   XZ=     0.2458   YZ=    -1.2675   ZZ=    30.6786
   Eigenvalues:    24.9766    31.2825    41.2458
     70  H    Isotropic =    33.0361   Anisotropy =    11.3015
   XX=    30.3677   YX=     3.2223   ZX=    -3.0953
   XY=     5.0695   YY=    37.7851   ZY=    -3.1299
   XZ=    -2.8230   YZ=    -0.6742   ZZ=    30.9555
   Eigenvalues:    27.2716    31.2663    40.5704
     71  H    Isotropic =    32.5704   Anisotropy =    11.2650
   XX=    31.6875   YX=    -4.4821   ZX=     2.3696
   XY=    -5.2410   YY=    32.7123   ZY=    -4.4364
   XZ=     2.8029   YZ=    -2.9952   ZZ=    33.3115
   Eigenvalues:    27.2326    30.3983    40.0804
     72  H    Isotropic =    32.0666   Anisotropy =    16.3815
   XX=    30.6776   YX=     1.1677   ZX=    -6.7293
   XY=     2.2662   YY=    26.5033   ZY=    -2.0542
   XZ=    -6.7305   YZ=    -0.4054   ZZ=    39.0190
   Eigenvalues:    25.6534    27.5588    42.9877
     73  H    Isotropic =    32.0703   Anisotropy =    14.8563
   XX=    29.6276   YX=    -3.6415   ZX=     3.3222
   XY=    -3.1419   YY=    39.2469   ZY=    -3.8959
   XZ=     3.1689   YZ=    -4.2723   ZZ=    27.3365
   Eigenvalues:    24.8629    29.3735    41.9745
     74  H    Isotropic =    30.4018   Anisotropy =    11.1534
   XX=    33.0670   YX=    -3.5369   ZX=    -3.1034
   XY=    -3.2155   YY=    26.8257   ZY=     4.4335
   XZ=    -2.5007   YZ=     4.5721   ZZ=    31.3127
   Eigenvalues:    23.7823    29.5857    37.8374
     75  H    Isotropic =    31.2381   Anisotropy =    12.4423
   XX=    30.7234   YX=    -1.8780   ZX=     5.6768
   XY=    -1.3807   YY=    28.8621   ZY=    -4.2764
   XZ=     5.2072   YZ=    -2.9145   ZZ=    34.1288
   Eigenvalues:    26.2376    27.9438    39.5330
     76  H    Isotropic =    30.5727   Anisotropy =     8.1417
   XX=    31.7964   YX=     1.7429   ZX=    -1.3453
   XY=     2.5540   YY=    28.1966   ZY=    -3.7150
   XZ=    -2.0360   YZ=    -4.3776   ZZ=    31.7251
   Eigenvalues:    25.4120    30.3056    36.0005
     77  H    Isotropic =    30.4863   Anisotropy =    12.0082
   XX=    33.6781   YX=     4.3948   ZX=     3.4313
   XY=     4.3260   YY=    29.2795   ZY=     4.0175
   XZ=     2.5326   YZ=     3.6727   ZZ=    28.5013
   Eigenvalues:    24.9291    28.0381    38.4918
     78  H    Isotropic =    30.4993   Anisotropy =    12.1630
   XX=    36.5362   YX=    -4.1534   ZX=    -0.1380
   XY=    -4.5049   YY=    29.3481   ZY=     0.4928
   XZ=    -0.7054   YZ=     1.0644   ZZ=    25.6134
   Eigenvalues:    25.4284    27.4614    38.6079
     79  H    Isotropic =    31.7604   Anisotropy =    10.6482
   XX=    30.1658   YX=     1.1972   ZX=    -3.0907
   XY=    -0.0103   YY=    27.0206   ZY=     1.4077
   XZ=    -1.5012   YZ=     1.6367   ZZ=    38.0949
   Eigenvalues:    26.5640    29.8580    38.8593
     80  H    Isotropic =    30.6180   Anisotropy =    14.9858
   XX=    30.5752   YX=     4.5089   ZX=     4.8844
   XY=     4.2066   YY=    32.3530   ZY=     5.3358
   XZ=     5.4209   YZ=     5.3538   ZZ=    28.9258
   Eigenvalues:    24.1440    27.1015    40.6085
     81  H    Isotropic =    30.8328   Anisotropy =    11.0405
   XX=    31.7486   YX=    -4.0985   ZX=     4.9474
   XY=    -4.3310   YY=    29.0324   ZY=     0.1274
   XZ=     5.9067   YZ=    -0.0153   ZZ=    31.7173
   Eigenvalues:    24.1491    30.1561    38.1931
     82  H    Isotropic =    30.1708   Anisotropy =    11.6807
   XX=    27.0470   YX=     3.4893   ZX=     0.1309
   XY=     0.9437   YY=    32.8042   ZY=    -5.9827
   XZ=     2.5246   YZ=    -6.1430   ZZ=    30.6613
   Eigenvalues:    23.7433    28.8111    37.9579
     83  H    Isotropic =    29.8560   Anisotropy =    11.3053
   XX=    27.7634   YX=    -2.7359   ZX=    -0.3404
   XY=     0.7486   YY=    32.3830   ZY=     6.3670
   XZ=     0.8181   YZ=     6.1865   ZZ=    29.4216
   Eigenvalues:    24.2668    27.9084    37.3929
     84  H    Isotropic =    25.4183   Anisotropy =    15.0976
   XX=    29.0874   YX=     6.4282   ZX=    -1.1048
   XY=     8.2712   YY=    25.9706   ZY=    -1.6439
   XZ=    -2.6932   YZ=    -1.6451   ZZ=    21.1969
   Eigenvalues:    20.0071    20.7644    35.4833
     85  H    Isotropic =    25.6528   Anisotropy =     5.5813
   XX=    25.1135   YX=     1.8997   ZX=     3.3405
   XY=     1.8172   YY=    25.1897   ZY=    -1.5203
   XZ=     3.4656   YZ=    -1.4808   ZZ=    26.6551
   Eigenvalues:    21.0251    26.5596    29.3736
     86  H    Isotropic =    26.5587   Anisotropy =     7.5766
   XX=    25.3143   YX=     4.0845   ZX=     1.8427
   XY=     3.6815   YY=    27.6984   ZY=    -3.9690
   XZ=     1.6057   YZ=    -3.3672   ZZ=    26.6633
   Eigenvalues:    20.3183    27.7480    31.6097
     87  H    Isotropic =    31.1138   Anisotropy =    12.1262
   XX=    38.6564   YX=     2.4038   ZX=     0.8336
   XY=     2.0993   YY=    27.6014   ZY=    -0.4972
   XZ=    -2.8679   YZ=    -0.5922   ZZ=    27.0835
   Eigenvalues:    26.7226    27.4208    39.1979
     88  H    Isotropic =    32.1687   Anisotropy =    12.0165
   XX=    27.6952   YX=    -3.2843   ZX=     1.1395
   XY=    -1.4893   YY=    30.8471   ZY=     4.6956
   XZ=     1.3511   YZ=     4.3984   ZZ=    37.9638
   Eigenvalues:    25.4317    30.8947    40.1797
     89  H    Isotropic =    32.9639   Anisotropy =    11.1748
   XX=    38.7010   YX=    -0.9857   ZX=    -4.2881
   XY=     2.3226   YY=    31.9297   ZY=    -2.7121
   XZ=    -4.1474   YZ=    -1.6176   ZZ=    28.2609
   Eigenvalues:    26.1814    32.2965    40.4137
     90  H    Isotropic =    32.3220   Anisotropy =    13.2368
   XX=    28.2046   YX=    -1.3664   ZX=    -0.8737
   XY=    -1.3688   YY=    39.1332   ZY=     4.4504
   XZ=    -1.0903   YZ=     4.5912   ZZ=    29.6283
   Eigenvalues:    27.4990    28.3205    41.1466
     91  H    Isotropic =    32.6148   Anisotropy =    18.8829
   XX=    44.6521   YX=    -3.3292   ZX=    -1.0084
   XY=    -2.4952   YY=    26.4183   ZY=    -0.8223
   XZ=    -1.9160   YZ=    -0.5586   ZZ=    26.7740
   Eigenvalues:    25.3480    27.2931    45.2034
     92  H    Isotropic =    30.9548   Anisotropy =    12.2080
   XX=    35.2230   YX=     1.4754   ZX=     5.1561
   XY=     0.1552   YY=    26.5696   ZY=    -1.7550
   XZ=     5.9865   YZ=    -0.2566   ZZ=    31.0719
   Eigenvalues:    25.5562    28.2148    39.0935
     93  H    Isotropic =    30.9616   Anisotropy =    14.3642
   XX=    25.4441   YX=    -1.3404   ZX=    -3.5018
   XY=    -1.1366   YY=    27.7754   ZY=     0.8298
   XZ=    -2.6021   YZ=     2.2663   ZZ=    39.6651
   Eigenvalues:    24.5485    27.7985    40.5377
     94  H    Isotropic =    32.3895   Anisotropy =    17.9074
   XX=    26.0388   YX=    -1.4730   ZX=     1.2311
   XY=    -1.3333   YY=    33.5199   ZY=    -8.2357
   XZ=     1.0158   YZ=    -8.4616   ZZ=    37.6097
   Eigenvalues:    25.7360    27.1047    44.3278
     95  H    Isotropic =    32.6119   Anisotropy =    11.6278
   XX=    38.1640   YX=     3.1699   ZX=    -2.9397
   XY=     2.9623   YY=    28.3965   ZY=    -2.7686
   XZ=    -2.6170   YZ=    -2.5897   ZZ=    31.2753
   Eigenvalues:    26.6334    30.8386    40.3638
     96  H    Isotropic =    32.6181   Anisotropy =    13.5275
   XX=    40.4048   YX=    -3.7845   ZX=     0.7498
   XY=    -3.8792   YY=    27.9762   ZY=    -2.4665
   XZ=     0.5854   YZ=    -2.4407   ZZ=    29.4735
   Eigenvalues:    25.6219    30.5960    41.6365
     97  H    Isotropic =    32.4853   Anisotropy =    13.8815
   XX=    26.6460   YX=     1.4817   ZX=     0.1817
   XY=     0.7329   YY=    41.6326   ZY=    -0.6695
   XZ=    -0.0076   YZ=    -0.4822   ZZ=    29.1773
   Eigenvalues:    26.5582    29.1581    41.7397
     98  H    Isotropic =    31.7133   Anisotropy =    11.4557
   XX=    27.4451   YX=     0.5460   ZX=    -3.6383
   XY=    -0.3915   YY=    38.7922   ZY=     3.9013
   XZ=    -2.8752   YZ=     0.7584   ZZ=    28.9027
   Eigenvalues:    24.6682    31.1213    39.3504
     99  H    Isotropic =    32.8857   Anisotropy =    11.8785
   XX=    39.5642   YX=    -2.8882   ZX=     2.9786
   XY=    -2.7166   YY=    28.7801   ZY=     2.4452
   XZ=     2.6574   YZ=     0.6342   ZZ=    30.3129
   Eigenvalues:    26.6523    31.2002    40.8047
    100  H    Isotropic =    31.0480   Anisotropy =    15.5846
   XX=    28.7915   YX=    -5.3631   ZX=    -5.7569
   XY=    -3.1254   YY=    29.1749   ZY=     5.6160
   XZ=    -4.0968   YZ=     4.7951   ZZ=    35.1776
   Eigenvalues:    24.7343    26.9720    41.4378
    101  H    Isotropic =    31.5283   Anisotropy =     8.9782
   XX=    35.9177   YX=     2.2805   ZX=    -3.0445
   XY=     1.9492   YY=    29.2049   ZY=    -0.0939
   XZ=    -2.4795   YZ=    -1.0754   ZZ=    29.4623
   Eigenvalues:    28.3340    28.7373    37.5138
    102  H    Isotropic =    31.6460   Anisotropy =    10.5253
   XX=    35.0082   YX=     1.5907   ZX=    -4.3087
   XY=     0.5155   YY=    26.0231   ZY=    -1.6092
   XZ=    -3.5421   YZ=    -1.2902   ZZ=    33.9069
   Eigenvalues:    25.7483    30.5269    38.6629
    103  H    Isotropic =    32.2212   Anisotropy =    14.2965
   XX=    29.2226   YX=     4.9974   ZX=     2.4353
   XY=     4.2655   YY=    39.9283   ZY=     0.2077
   XZ=     2.4122   YZ=     0.4839   ZZ=    27.5126
   Eigenvalues:    25.3122    29.5992    41.7522
    104  H    Isotropic =    31.1681   Anisotropy =    12.1158
   XX=    29.3039   YX=     2.4294   ZX=     4.4548
   XY=     1.9206   YY=    31.0249   ZY=     5.5067
   XZ=     4.3783   YZ=     3.8413   ZZ=    33.1755
   Eigenvalues:    26.1732    28.0858    39.2454
    105  H    Isotropic =    30.5518   Anisotropy =    11.8241
   XX=    37.0243   YX=     3.5279   ZX=    -0.6547
   XY=     3.5726   YY=    27.8215   ZY=    -1.3144
   XZ=    -1.4367   YZ=    -1.9481   ZZ=    26.8097
   Eigenvalues:    25.4142    27.8068    38.4346
    106  H    Isotropic =    30.4841   Anisotropy =    12.1785
   XX=    32.1528   YX=    -2.0176   ZX=     5.3403
   XY=    -2.2080   YY=    26.0658   ZY=    -3.0597
   XZ=     4.3933   YZ=    -2.7200   ZZ=    33.2338
   Eigenvalues:    25.0121    27.8371    38.6032
    107  H    Isotropic =    30.6110   Anisotropy =     8.0677
   XX=    31.5920   YX=    -2.8473   ZX=     0.4704
   XY=    -3.6135   YY=    32.6639   ZY=     2.6643
   XZ=     0.0290   YZ=     3.3592   ZZ=    27.5770
   Eigenvalues:    25.6716    30.1719    35.9895
    108  H    Isotropic =    30.9029   Anisotropy =    10.7068
   XX=    30.5369   YX=     4.9447   ZX=     3.0743
   XY=     5.6898   YY=    29.2257   ZY=     1.5019
   XZ=     4.0141   YZ=     1.7853   ZZ=    32.9463
   Eigenvalues:    24.3531    30.3150    38.0408
    109  H    Isotropic =    30.6587   Anisotropy =    14.7800
   XX=    28.5910   YX=    -1.9644   ZX=     5.1322
   XY=    -1.3868   YY=    29.1815   ZY=    -5.8154
   XZ=     5.5787   YZ=    -5.8395   ZZ=    34.2035
   Eigenvalues:    24.2681    27.1959    40.5120
    110  H    Isotropic =    31.8703   Anisotropy =    10.7208
   XX=    31.6206   YX=    -2.4124   ZX=    -4.1573
   XY=    -0.7966   YY=    27.1525   ZY=     1.7417
   XZ=    -2.9974   YZ=     1.2579   ZZ=    36.8377
   Eigenvalues:    26.6214    29.9719    39.0175
 End of Minotr F.D. properties file   721 does not exist.
 End of Minotr F.D. properties file   722 does not exist.
 End of Minotr F.D. properties file   788 does not exist.
 Hyperfine terms turned off by default for NAtoms > 100.

 **********************************************************************

            Population analysis using the SCF Density.

 **********************************************************************

 Orbital symmetries:
       Occupied  (A) (A) (A) (A) (A) (A) (A) (A) (A) (A) (A) (A)
                 (A) (A) (A) (A) (A) (A) (A) (A) (A) (A) (A) (A)
                 (A) (A) (A) (A) (A) (A) (A) (A) (A) (A) (A) (A)
                 (A) (A) (A) (A) (A) (A) (A) (A) (A) (A) (A) (A)
                 (A) (A) (A) (A) (A) (A) (A) (A) (A) (A) (A) (A)
                 (A) (A) (A) (A) (A) (A) (A) (A) (A) (A) (A) (A)
                 (A) (A) (A) (A) (A) (A) (A) (A) (A) (A) (A) (A)
                 (A) (A) (A) (A) (A) (A) (A) (A) (A) (A) (A) (A)
                 (A) (A) (A) (A) (A) (A) (A) (A) (A) (A) (A) (A)
                 (A) (A) (A) (A) (A) (A) (A) (A) (A) (A) (A) (A)
                 (A) (A) (A) (A) (A) (A) (A) (A) (A) (A) (A) (A)
                 (A) (A) (A) (A) (A) (A) (A) (A) (A) (A) (A) (A)
                 (A) (A) (A) (A) (A) (A) (A) (A) (A) (A) (A) (A)
                 (A) (A) (A) (A) (A) (A) (A) (A) (A) (A) (A) (A)
                 (A) (A) (A) (A) (A) (A) (A) (A) (A) (A) (A) (A)
                 (A) (A) (A) (A) (A) (A) (A) (A) (A) (A) (A) (A)
                 (A) (A) (A) (A) (A)
       Virtual   (A) (A) (A) (A) (A) (A) (A) (A) (A) (A) (A) (A)
                 (A) (A) (A) (A) (A) (A) (A) (A) (A) (A) (A) (A)
                 (A) (A) (A) (A) (A) (A) (A) (A) (A) (A) (A) (A)
                 (A) (A) (A) (A) (A) (A) (A) (A) (A) (A) (A) (A)
                 (A) (A) (A) (A) (A) (A) (A) (A) (A) (A) (A) (A)
                 (A) (A) (A) (A) (A) (A) (A) (A) (A) (A) (A) (A)
                 (A) (A) (A) (A) (A) (A) (A) (A) (A) (A) (A) (A)
                 (A) (A) (A) (A) (A) (A) (A) (A) (A) (A) (A) (A)
                 (A) (A) (A) (A) (A) (A) (A) (A) (A) (A) (A) (A)
                 (A) (A) (A) (A) (A) (A) (A) (A) (A) (A) (A) (A)
                 (A) (A) (A) (A) (A) (A) (A) (A) (A)
 The electronic state is 1-A.
 Alpha  occ. eigenvalues --  -20.31379 -20.29766 -20.25278 -20.23774 -19.91694
 Alpha  occ. eigenvalues --  -15.47871 -15.33907 -15.32845 -15.29943 -11.17303
 Alpha  occ. eigenvalues --  -11.15663 -11.11065 -11.10280 -11.09892 -11.09378
 Alpha  occ. eigenvalues --  -11.09230 -11.08796 -11.08781 -11.08292 -11.07415
 Alpha  occ. eigenvalues --  -11.07301 -11.07150 -11.07016 -11.06879 -11.06544
 Alpha  occ. eigenvalues --  -11.06349 -11.06266 -11.05911 -11.05737 -11.05727
 Alpha  occ. eigenvalues --  -11.05515 -11.05232 -11.05130 -11.05074 -11.05006
 Alpha  occ. eigenvalues --  -11.04810 -11.04792 -11.03903 -11.03791 -11.03784
 Alpha  occ. eigenvalues --  -11.03517 -11.03469 -11.03336 -11.03174 -11.01493
 Alpha  occ. eigenvalues --  -11.01475 -11.01469 -11.01350 -11.01213 -11.01112
 Alpha  occ. eigenvalues --  -11.01054 -11.00983 -11.00974 -11.00697  -1.38564
 Alpha  occ. eigenvalues --   -1.37043  -1.28451  -1.28267  -1.26729  -1.21391
 Alpha  occ. eigenvalues --   -1.21073  -1.18869  -1.12088  -1.08912  -1.08350
 Alpha  occ. eigenvalues --   -1.07054  -1.06394  -1.04538  -1.03408  -1.00820
 Alpha  occ. eigenvalues --   -1.00031  -0.98798  -0.98179  -0.97633  -0.96716
 Alpha  occ. eigenvalues --   -0.96059  -0.94735  -0.93980  -0.93385  -0.92356
 Alpha  occ. eigenvalues --   -0.91974  -0.91279  -0.90826  -0.89386  -0.87891
 Alpha  occ. eigenvalues --   -0.86396  -0.84776  -0.83105  -0.82501  -0.81021
 Alpha  occ. eigenvalues --   -0.80838  -0.79052  -0.78977  -0.78196  -0.76735
 Alpha  occ. eigenvalues --   -0.76595  -0.74583  -0.73677  -0.72627  -0.72386
 Alpha  occ. eigenvalues --   -0.71343  -0.70499  -0.69755  -0.68954  -0.67059
 Alpha  occ. eigenvalues --   -0.65959  -0.64839  -0.64278  -0.63933  -0.63049
 Alpha  occ. eigenvalues --   -0.62974  -0.61965  -0.61839  -0.61667  -0.61062
 Alpha  occ. eigenvalues --   -0.60726  -0.59896  -0.59727  -0.59340  -0.59078
 Alpha  occ. eigenvalues --   -0.58460  -0.57958  -0.57851  -0.57553  -0.57481
 Alpha  occ. eigenvalues --   -0.57047  -0.56563  -0.56325  -0.55917  -0.55722
 Alpha  occ. eigenvalues --   -0.55313  -0.54898  -0.54543  -0.54027  -0.53886
 Alpha  occ. eigenvalues --   -0.53642  -0.53314  -0.53224  -0.52786  -0.52478
 Alpha  occ. eigenvalues --   -0.52238  -0.51382  -0.51179  -0.51024  -0.50635
 Alpha  occ. eigenvalues --   -0.50298  -0.49952  -0.49900  -0.48948  -0.48788
 Alpha  occ. eigenvalues --   -0.48372  -0.48037  -0.47627  -0.47225  -0.47110
 Alpha  occ. eigenvalues --   -0.46921  -0.46389  -0.46319  -0.46079  -0.45842
 Alpha  occ. eigenvalues --   -0.45328  -0.45224  -0.44675  -0.44601  -0.43823
 Alpha  occ. eigenvalues --   -0.43538  -0.43502  -0.42995  -0.42873  -0.42480
 Alpha  occ. eigenvalues --   -0.42432  -0.41843  -0.41282  -0.41134  -0.40550
 Alpha  occ. eigenvalues --   -0.40224  -0.39794  -0.39246  -0.38848  -0.37712
 Alpha  occ. eigenvalues --   -0.37509  -0.36957  -0.35585  -0.35515  -0.34685
 Alpha  occ. eigenvalues --   -0.33924  -0.33357  -0.32475  -0.32453  -0.31133
 Alpha  occ. eigenvalues --   -0.27165  -0.26683  -0.26141  -0.21130  -0.20015
 Alpha  occ. eigenvalues --   -0.15580  -0.15407
 Alpha virt. eigenvalues --    0.27224   0.28128   0.28292   0.28976   0.29709
 Alpha virt. eigenvalues --    0.31406   0.46517   0.47225   0.48819   0.49289
 Alpha virt. eigenvalues --    0.49430   0.50177   0.50685   0.51234   0.52541
 Alpha virt. eigenvalues --    0.52727   0.54198   0.54454   0.55330   0.56339
 Alpha virt. eigenvalues --    0.56484   0.57382   0.58188   0.58370   0.58584
 Alpha virt. eigenvalues --    0.59134   0.59154   0.60150   0.60611   0.61127
 Alpha virt. eigenvalues --    0.61504   0.61826   0.62195   0.62506   0.62898
 Alpha virt. eigenvalues --    0.63161   0.63746   0.63891   0.64193   0.64270
 Alpha virt. eigenvalues --    0.64457   0.64736   0.65224   0.65432   0.65671
 Alpha virt. eigenvalues --    0.65816   0.66276   0.66576   0.66950   0.67125
 Alpha virt. eigenvalues --    0.67409   0.67689   0.67756   0.68588   0.68921
 Alpha virt. eigenvalues --    0.69036   0.69073   0.69343   0.69878   0.70143
 Alpha virt. eigenvalues --    0.70244   0.70489   0.70729   0.70872   0.71119
 Alpha virt. eigenvalues --    0.71333   0.71695   0.71816   0.72008   0.72370
 Alpha virt. eigenvalues --    0.72541   0.72962   0.73239   0.73471   0.73793
 Alpha virt. eigenvalues --    0.73920   0.74554   0.74667   0.74871   0.75180
 Alpha virt. eigenvalues --    0.75414   0.75446   0.75736   0.75778   0.76667
 Alpha virt. eigenvalues --    0.76686   0.76800   0.76957   0.77039   0.77273
 Alpha virt. eigenvalues --    0.77443   0.77717   0.78384   0.78470   0.78710
 Alpha virt. eigenvalues --    0.79391   0.79607   0.79733   0.80079   0.80814
 Alpha virt. eigenvalues --    0.80909   0.81316   0.81630   0.81692   0.81927
 Alpha virt. eigenvalues --    0.82945   0.83306   0.83467   0.83951   0.84909
 Alpha virt. eigenvalues --    0.85624   0.86039   0.86564   0.86834   0.88168
 Alpha virt. eigenvalues --    0.88349   0.89531   0.91369   0.92155   0.94511
 Alpha virt. eigenvalues --    0.95132   0.96247   0.98315   1.00676   1.02079
 Alpha virt. eigenvalues --    1.10945   1.12250   1.16266   1.16811
          Condensed to atoms (all electrons):
 Mulliken charges:
               1
     1  C   -0.077427
     2  C    0.002686
     3  C   -0.061142
     4  C   -0.088829
     5  C    0.088975
     6  C   -0.014277
     7  N   -0.282600
     8  C    0.015100
     9  C    0.129772
    10  C    0.040790
    11  C   -0.115585
    12  C   -0.107268
    13  C    0.041182
    14  N   -0.293669
    15  C   -0.011806
    16  C   -0.095680
    17  C   -0.100428
    18  C   -0.099143
    19  C   -0.013621
    20  C   -0.104195
    21  C   -0.063932
    22  C    0.318264
    23  O   -0.274952
    24  O   -0.255661
    25  C   -0.055181
    26  C   -0.079307
    27  C   -0.109854
    28  C   -0.001328
    29  C   -0.071852
    30  C   -0.062753
    31  C   -0.092978
    32  C    0.087806
    33  C   -0.015169
    34  N   -0.287555
    35  C    0.021186
    36  C    0.128682
    37  C    0.040955
    38  C   -0.115668
    39  C   -0.105186
    40  C    0.028081
    41  N   -0.085260
    42  C   -0.007713
    43  C   -0.110793
    44  C   -0.102206
    45  C   -0.106420
    46  C   -0.012102
    47  C   -0.111617
    48  C   -0.067190
    49  C    0.320470
    50  O   -0.278540
    51  O   -0.254165
    52  C   -0.055736
    53  C   -0.079098
    54  O   -0.454105
    55  H    0.058039
    56  H    0.056711
    57  H    0.059113
    58  H    0.041106
    59  H    0.058476
    60  H    0.049364
    61  H    0.047212
    62  H    0.045207
    63  H    0.037308
    64  H    0.061179
    65  H    0.056733
    66  H    0.048448
    67  H    0.043894
    68  H    0.050941
    69  H    0.064844
    70  H    0.058351
    71  H    0.040110
    72  H    0.061500
    73  H    0.047449
    74  H    0.079673
    75  H    0.062965
    76  H    0.073951
    77  H    0.076474
    78  H    0.071103
    79  H    0.055960
    80  H    0.071160
    81  H    0.074859
    82  H    0.058366
    83  H    0.063251
    84  H    0.092735
    85  H    0.055822
    86  H    0.056875
    87  H    0.085611
    88  H    0.052714
    89  H    0.056926
    90  H    0.051775
    91  H    0.052950
    92  H    0.088817
    93  H    0.080814
    94  H    0.065606
    95  H    0.057306
    96  H    0.056666
    97  H    0.057332
    98  H    0.083066
    99  H    0.071082
   100  H    0.089245
   101  H    0.067872
   102  H    0.066296
   103  H    0.055016
   104  H    0.067084
   105  H    0.073132
   106  H    0.078962
   107  H    0.075872
   108  H    0.075573
   109  H    0.073557
   110  H    0.055591
 Sum of Mulliken charges =  -0.00000
 Mulliken charges with hydrogens summed into heavy atoms:
               1
     1  C   -0.019388
     2  C    0.002686
     3  C   -0.004431
     4  C   -0.029717
     5  C    0.088975
     6  C   -0.014277
     7  N   -0.282600
     8  C    0.015100
     9  C    0.129772
    10  C    0.081895
    11  C   -0.007745
    12  C   -0.014849
    13  C    0.041182
    14  N   -0.293669
    15  C    0.086682
    16  C    0.009501
    17  C   -0.005592
    18  C    0.024052
    19  C    0.087989
    20  C    0.022927
    21  C   -0.000967
    22  C    0.318264
    23  O   -0.274952
    24  O   -0.255661
    25  C    0.166347
    26  C    0.122672
    27  C    0.011764
    28  C   -0.001328
    29  C    0.020883
    30  C   -0.006931
    31  C   -0.036102
    32  C    0.087806
    33  C   -0.015169
    34  N   -0.287555
    35  C    0.021186
    36  C    0.128682
    37  C    0.126565
    38  C   -0.006027
    39  C   -0.000461
    40  C    0.028081
    41  N   -0.085260
    42  C    0.161918
    43  C    0.012119
    44  C    0.011792
    45  C    0.047727
    46  C    0.145015
    47  C    0.009694
    48  C   -0.000106
    49  C    0.320470
    50  O   -0.278540
    51  O   -0.254165
    52  C    0.172230
    53  C    0.125623
    54  O   -0.454105
 Electronic spatial extent (au):  <R**2>=          35700.1507
 Charge=             -0.0000 electrons
 Dipole moment (field-independent basis, Debye):
    X=             -2.8442    Y=             -3.9042    Z=             -1.1796  Tot=              4.9723
 Quadrupole moment (field-independent basis, Debye-Ang):
   XX=           -289.5159   YY=           -299.1021   ZZ=           -299.2647
   XY=             12.9294   XZ=             16.3218   YZ=            -11.7202
 Traceless Quadrupole moment (field-independent basis, Debye-Ang):
   XX=              6.4450   YY=             -3.1412   ZZ=             -3.3038
   XY=             12.9294   XZ=             16.3218   YZ=            -11.7202
 Octapole moment (field-independent basis, Debye-Ang**2):
  XXX=            -91.4892  YYY=            -16.2757  ZZZ=             -9.6122  XYY=            -19.6123
  XXY=             19.8538  XXZ=             29.8055  XZZ=            -15.7460  YZZ=            -25.1492
  YYZ=             11.3258  XYZ=             -3.2504
 Hexadecapole moment (field-independent basis, Debye-Ang**3):
 XXXX=         -29277.7114 YYYY=          -7220.8016 ZZZZ=          -6128.5545 XXXY=            225.6287
 XXXZ=            901.2810 YYYX=             18.3342 YYYZ=             37.1405 ZZZX=             31.6657
 ZZZY=            -95.2502 XXYY=          -6363.3734 XXZZ=          -6089.4997 YYZZ=          -2220.1154
 XXYZ=           -134.7947 YYXZ=             60.6721 ZZXY=             88.7744
 N-N= 8.221437315534D+03 E-N=-2.181915589871D+04  KE= 2.279151344751D+03
 ******************************Gaussian NBO Version 3.1******************************
             N A T U R A L   A T O M I C   O R B I T A L   A N D
          N A T U R A L   B O N D   O R B I T A L   A N A L Y S I S
 ******************************Gaussian NBO Version 3.1******************************
       /RESON  / : Allow strongly delocalized NBO set
       /NLMO   / : Form Natural Localized Molecular Orbitals
       /NMR /    : Analyze NMR Sheilding Tensor 

 Analyzing the SCF density

 Job title: pleiokomenine_C_1a                                              

 Storage needed:    355564 in NPA,    438187 in NBO,   2133784 in NLMO ( 104796000 available)
 GSVD:  LWork=     -108884 too small for GESVD, short by      536270 words or      536270 for optimal perf.


 NATURAL POPULATIONS:  Natural atomic orbital occupancies 
                                                          
   NAO  Atom  No  lang   Type(AO)    Occupancy      Energy
 ----------------------------------------------------------
     1    C    1  S      Cor( 1S)     1.99992     -10.93724
     2    C    1  S      Val( 2S)     1.07744      -0.16838
     3    C    1  px     Val( 2p)     0.99741       0.11031
     4    C    1  py     Val( 2p)     0.99165       0.11987
     5    C    1  pz     Val( 2p)     0.99445       0.11157
 
     6    C    2  S      Cor( 1S)     1.99990     -10.94796
     7    C    2  S      Val( 2S)     1.07992      -0.17548
     8    C    2  px     Val( 2p)     0.95791       0.13185
     9    C    2  py     Val( 2p)     0.96648       0.14116
    10    C    2  pz     Val( 2p)     0.97774       0.12242
 
    11    C    3  S      Cor( 1S)     1.99994     -10.93799
    12    C    3  S      Val( 2S)     1.08419      -0.17287
    13    C    3  px     Val( 2p)     0.97983       0.12391
    14    C    3  py     Val( 2p)     0.98366       0.12692
    15    C    3  pz     Val( 2p)     0.98597       0.11177
 
    16    C    4  S      Cor( 1S)     1.99993     -10.93229
    17    C    4  S      Val( 2S)     1.07212      -0.16422
    18    C    4  px     Val( 2p)     1.00774       0.10928
    19    C    4  py     Val( 2p)     0.99442       0.12766
    20    C    4  pz     Val( 2p)     1.01165       0.10358
 
    21    C    5  S      Cor( 1S)     1.99985     -10.97898
    22    C    5  S      Val( 2S)     1.06145      -0.17769
    23    C    5  px     Val( 2p)     0.90113       0.12400
    24    C    5  py     Val( 2p)     0.94658       0.14519
    25    C    5  pz     Val( 2p)     0.97852       0.09994
 
    26    C    6  S      Cor( 1S)     1.99990     -10.93959
    27    C    6  S      Val( 2S)     1.08385      -0.18166
    28    C    6  px     Val( 2p)     0.98443       0.13004
    29    C    6  py     Val( 2p)     0.97299       0.12394
    30    C    6  pz     Val( 2p)     0.98280       0.10936
 
    31    N    7  S      Cor( 1S)     1.99998     -15.26141
    32    N    7  S      Val( 2S)     1.41095      -0.58842
    33    N    7  px     Val( 2p)     1.50591      -0.14304
    34    N    7  py     Val( 2p)     1.11749      -0.00067
    35    N    7  pz     Val( 2p)     1.23714      -0.03586
 
    36    C    8  S      Cor( 1S)     1.99996     -10.99960
    37    C    8  S      Val( 2S)     1.10622      -0.22408
    38    C    8  px     Val( 2p)     0.98135       0.07605
    39    C    8  py     Val( 2p)     0.95149       0.11768
    40    C    8  pz     Val( 2p)     0.94593       0.11856
 
    41    C    9  S      Cor( 1S)     1.99996     -11.04370
    42    C    9  S      Val( 2S)     1.11333      -0.25036
    43    C    9  px     Val( 2p)     0.92416       0.09034
    44    C    9  py     Val( 2p)     0.85910       0.13485
    45    C    9  pz     Val( 2p)     0.92969       0.09140
 
    46    C   10  S      Cor( 1S)     1.99994     -11.00992
    47    C   10  S      Val( 2S)     1.09253      -0.20997
    48    C   10  px     Val( 2p)     0.97214       0.10705
    49    C   10  py     Val( 2p)     0.97106       0.08885
    50    C   10  pz     Val( 2p)     0.89137       0.10467
 
    51    C   11  S      Cor( 1S)     1.99993     -10.97305
    52    C   11  S      Val( 2S)     1.10493      -0.20854
    53    C   11  px     Val( 2p)     0.99339       0.09078
    54    C   11  py     Val( 2p)     0.99582       0.09011
    55    C   11  pz     Val( 2p)     0.99137       0.09227
 
    56    C   12  S      Cor( 1S)     1.99996     -10.97316
    57    C   12  S      Val( 2S)     1.08823      -0.19270
    58    C   12  px     Val( 2p)     1.00156       0.09395
    59    C   12  py     Val( 2p)     0.99580       0.09357
    60    C   12  pz     Val( 2p)     0.99164       0.08977
 
    61    C   13  S      Cor( 1S)     1.99998     -11.00040
    62    C   13  S      Val( 2S)     1.10016      -0.21754
    63    C   13  px     Val( 2p)     0.94503       0.11368
    64    C   13  py     Val( 2p)     0.95012       0.11062
    65    C   13  pz     Val( 2p)     0.94198       0.11754
 
    66    N   14  S      Cor( 1S)     1.99999     -15.23004
    67    N   14  S      Val( 2S)     1.41502      -0.57397
    68    N   14  px     Val( 2p)     1.57765      -0.15892
    69    N   14  py     Val( 2p)     1.22091      -0.01537
    70    N   14  pz     Val( 2p)     1.07009       0.03721
 
    71    C   15  S      Cor( 1S)     1.99994     -11.00809
    72    C   15  S      Val( 2S)     1.06933      -0.18815
    73    C   15  px     Val( 2p)     0.96534       0.10344
    74    C   15  py     Val( 2p)     0.94837       0.08838
    75    C   15  pz     Val( 2p)     0.97410       0.09150
 
    76    C   16  S      Cor( 1S)     1.99996     -10.97723
    77    C   16  S      Val( 2S)     1.08436      -0.19069
    78    C   16  px     Val( 2p)     1.02125       0.09148
    79    C   16  py     Val( 2p)     0.98057       0.09701
    80    C   16  pz     Val( 2p)     0.97259       0.10012
 
    81    C   17  S      Cor( 1S)     1.99995     -10.97860
    82    C   17  S      Val( 2S)     1.09028      -0.19641
    83    C   17  px     Val( 2p)     1.00192       0.09212
    84    C   17  py     Val( 2p)     0.99745       0.09233
    85    C   17  pz     Val( 2p)     0.97463       0.09617
 
    86    C   18  S      Cor( 1S)     1.99994     -10.97165
    87    C   18  S      Val( 2S)     1.09319      -0.19220
    88    C   18  px     Val( 2p)     1.00333       0.09949
    89    C   18  py     Val( 2p)     1.01327       0.09875
    90    C   18  pz     Val( 2p)     0.95646       0.09223
 
    91    C   19  S      Cor( 1S)     1.99995     -11.00188
    92    C   19  S      Val( 2S)     1.07143      -0.18564
    93    C   19  px     Val( 2p)     0.99815       0.08708
    94    C   19  py     Val( 2p)     0.89940       0.11230
    95    C   19  pz     Val( 2p)     0.99075       0.09075
 
    96    C   20  S      Cor( 1S)     1.99992     -10.97663
    97    C   20  S      Val( 2S)     1.10191      -0.20501
    98    C   20  px     Val( 2p)     0.97084       0.09398
    99    C   20  py     Val( 2p)     0.97356       0.09891
   100    C   20  pz     Val( 2p)     1.02020       0.09209
 
   101    C   21  S      Cor( 1S)     1.99994     -11.00293
   102    C   21  S      Val( 2S)     1.11384      -0.23488
   103    C   21  px     Val( 2p)     0.96627       0.08951
   104    C   21  py     Val( 2p)     0.99058       0.07517
   105    C   21  pz     Val( 2p)     1.00955       0.07301
 
   106    C   22  S      Cor( 1S)     1.99991     -11.10382
   107    C   22  S      Val( 2S)     1.05596      -0.25320
   108    C   22  px     Val( 2p)     0.89541       0.08877
   109    C   22  py     Val( 2p)     0.83483       0.05498
   110    C   22  pz     Val( 2p)     0.81324       0.15540
 
   111    O   23  S      Cor( 1S)     1.99999     -20.09022
   112    O   23  S      Val( 2S)     1.80838      -1.04946
   113    O   23  px     Val( 2p)     1.73660      -0.27073
   114    O   23  py     Val( 2p)     1.42062      -0.16908
   115    O   23  pz     Val( 2p)     1.34342      -0.11380
 
   116    O   24  S      Cor( 1S)     1.99999     -20.20703
   117    O   24  S      Val( 2S)     1.72940      -1.01944
   118    O   24  px     Val( 2p)     1.28343      -0.11752
   119    O   24  py     Val( 2p)     1.64781      -0.27588
   120    O   24  pz     Val( 2p)     1.60672      -0.26682
 
   121    C   25  S      Cor( 1S)     1.99984     -11.03924
   122    C   25  S      Val( 2S)     1.07664      -0.22057
   123    C   25  px     Val( 2p)     0.84801       0.08459
   124    C   25  py     Val( 2p)     1.02357       0.04709
   125    C   25  pz     Val( 2p)     1.01673       0.05095
 
   126    C   26  S      Cor( 1S)     1.99992     -11.00730
   127    C   26  S      Val( 2S)     1.06542      -0.18812
   128    C   26  px     Val( 2p)     1.02267       0.06882
   129    C   26  py     Val( 2p)     1.05061       0.05665
   130    C   26  pz     Val( 2p)     0.87848       0.11217
 
   131    C   27  S      Cor( 1S)     1.99995     -10.97489
   132    C   27  S      Val( 2S)     1.08400      -0.18063
   133    C   27  px     Val( 2p)     0.97501       0.10993
   134    C   27  py     Val( 2p)     1.00003       0.09602
   135    C   27  pz     Val( 2p)     1.02779       0.09195
 
   136    C   28  S      Cor( 1S)     1.99991     -10.94770
   137    C   28  S      Val( 2S)     1.07934      -0.17627
   138    C   28  px     Val( 2p)     0.96773       0.11556
   139    C   28  py     Val( 2p)     0.97759       0.10799
   140    C   28  pz     Val( 2p)     0.96370       0.16638
 
   141    C   29  S      Cor( 1S)     1.99993     -10.93628
   142    C   29  S      Val( 2S)     1.08613      -0.17003
   143    C   29  px     Val( 2p)     0.98763       0.10151
   144    C   29  py     Val( 2p)     0.97671       0.10510
   145    C   29  pz     Val( 2p)     1.00020       0.14831
 
   146    C   30  S      Cor( 1S)     1.99994     -10.94241
   147    C   30  S      Val( 2S)     1.08410      -0.17715
   148    C   30  px     Val( 2p)     0.98615       0.10035
   149    C   30  py     Val( 2p)     0.98724       0.09781
   150    C   30  pz     Val( 2p)     0.97614       0.14923
 
   151    C   31  S      Cor( 1S)     1.99993     -10.93598
   152    C   31  S      Val( 2S)     1.07093      -0.16879
   153    C   31  px     Val( 2p)     1.01822       0.08672
   154    C   31  py     Val( 2p)     1.01219       0.09319
   155    C   31  pz     Val( 2p)     0.99009       0.14405
 
   156    C   32  S      Cor( 1S)     1.99985     -10.98534
   157    C   32  S      Val( 2S)     1.05981      -0.18271
   158    C   32  px     Val( 2p)     0.90850       0.10392
   159    C   32  py     Val( 2p)     0.93762       0.11452
   160    C   32  pz     Val( 2p)     0.98256       0.12979
 
   161    C   33  S      Cor( 1S)     1.99990     -10.94341
   162    C   33  S      Val( 2S)     1.08162      -0.18400
   163    C   33  px     Val( 2p)     0.99655       0.10625
   164    C   33  py     Val( 2p)     0.99073       0.09935
   165    C   33  pz     Val( 2p)     0.96093       0.14515
 
   166    N   34  S      Cor( 1S)     1.99998     -15.27119
   167    N   34  S      Val( 2S)     1.40452      -0.59704
   168    N   34  px     Val( 2p)     1.59033      -0.19082
   169    N   34  py     Val( 2p)     1.18260      -0.03673
   170    N   34  pz     Val( 2p)     1.09878       0.00847
 
   171    C   35  S      Cor( 1S)     1.99996     -11.01971
   172    C   35  S      Val( 2S)     1.11046      -0.24454
   173    C   35  px     Val( 2p)     0.97452       0.06642
   174    C   35  py     Val( 2p)     0.95038       0.09449
   175    C   35  pz     Val( 2p)     0.94243       0.10399
 
   176    C   36  S      Cor( 1S)     1.99996     -11.05823
   177    C   36  S      Val( 2S)     1.11197      -0.26411
   178    C   36  px     Val( 2p)     0.93122       0.07671
   179    C   36  py     Val( 2p)     0.89051       0.10516
   180    C   36  pz     Val( 2p)     0.89475       0.08717
 
   181    C   37  S      Cor( 1S)     1.99991     -11.04139
   182    C   37  S      Val( 2S)     1.12056      -0.26272
   183    C   37  px     Val( 2p)     1.00884       0.05657
   184    C   37  py     Val( 2p)     0.95840       0.06802
   185    C   37  pz     Val( 2p)     0.83912       0.09030
 
   186    C   38  S      Cor( 1S)     1.99994     -10.98929
   187    C   38  S      Val( 2S)     1.10462      -0.22440
   188    C   38  px     Val( 2p)     0.99658       0.07333
   189    C   38  py     Val( 2p)     0.99297       0.07383
   190    C   38  pz     Val( 2p)     0.99194       0.07783
 
   191    C   39  S      Cor( 1S)     1.99995     -10.99115
   192    C   39  S      Val( 2S)     1.09203      -0.21314
   193    C   39  px     Val( 2p)     1.00573       0.07632
   194    C   39  py     Val( 2p)     0.99899       0.07713
   195    C   39  pz     Val( 2p)     0.97636       0.07423
 
   196    C   40  S      Cor( 1S)     1.99998     -11.02517
   197    C   40  S      Val( 2S)     1.10487      -0.24801
   198    C   40  px     Val( 2p)     0.94913       0.08517
   199    C   40  py     Val( 2p)     0.94294       0.08687
   200    C   40  pz     Val( 2p)     0.95316       0.08625
 
   201    N   41  S      Cor( 1S)     1.99999     -15.41718
   202    N   41  S      Val( 2S)     1.40131      -0.66040
   203    N   41  px     Val( 2p)     1.19573      -0.11127
   204    N   41  py     Val( 2p)     1.23817      -0.12554
   205    N   41  pz     Val( 2p)     1.13808      -0.09284
 
   206    C   42  S      Cor( 1S)     1.99991     -11.03515
   207    C   42  S      Val( 2S)     1.08953      -0.23231
   208    C   42  px     Val( 2p)     1.04291       0.04182
   209    C   42  py     Val( 2p)     0.90421       0.09167
   210    C   42  pz     Val( 2p)     0.91996       0.06632
 
   211    C   43  S      Cor( 1S)     1.99997     -10.99946
   212    C   43  S      Val( 2S)     1.07898      -0.21034
   213    C   43  px     Val( 2p)     1.01600       0.06780
   214    C   43  py     Val( 2p)     0.98482       0.06868
   215    C   43  pz     Val( 2p)     1.00139       0.06451
 
   216    C   44  S      Cor( 1S)     1.99996     -10.99688
   217    C   44  S      Val( 2S)     1.08471      -0.21153
   218    C   44  px     Val( 2p)     1.01240       0.06975
   219    C   44  py     Val( 2p)     1.00153       0.07076
   220    C   44  pz     Val( 2p)     0.97121       0.07561
 
   221    C   45  S      Cor( 1S)     1.99994     -10.98915
   222    C   45  S      Val( 2S)     1.09340      -0.20943
   223    C   45  px     Val( 2p)     1.01071       0.08163
   224    C   45  py     Val( 2p)     1.02120       0.07056
   225    C   45  pz     Val( 2p)     0.95541       0.08464
 
   226    C   46  S      Cor( 1S)     1.99992     -11.02790
   227    C   46  S      Val( 2S)     1.09078      -0.22654
   228    C   46  px     Val( 2p)     0.84535       0.09677
   229    C   46  py     Val( 2p)     1.00843       0.05920
   230    C   46  pz     Val( 2p)     1.01712       0.05184
 
   231    C   47  S      Cor( 1S)     1.99992     -10.99770
   232    C   47  S      Val( 2S)     1.09906      -0.22545
   233    C   47  px     Val( 2p)     0.98102       0.07090
   234    C   47  py     Val( 2p)     1.00622       0.06306
   235    C   47  pz     Val( 2p)     0.98914       0.07419
 
   236    C   48  S      Cor( 1S)     1.99995     -11.01711
[...]
  107       1.7102        3.9660      -2.2558        -0.0981       1.8084
  109       0.2370        1.1224      -0.8854        -0.7328       0.9698
 Sum       30.8767        6.5948      24.2820        -0.5281      31.4049

 Contributions to Isotropic shielding for atom   95 (    32.6119 ppm):
                         Standard Origin              Atomic Origin
 NLMO      Total    Paramagnetic  Diamagnetic   Paramagnetic  Diamagnetic
   98      -0.1954        0.7331      -0.9285        -1.2689       1.0735
  100      -0.2339        0.5041      -0.7380        -1.0284       0.7944
  102       1.1245        1.0918       0.0327         0.3170       0.8075
  105       1.3363        0.0248       1.3115         0.4479       0.8884
  106       1.9673        4.1913      -2.2240         0.1376       1.8298
  107      26.3745       -0.2678      26.6423         0.5271      25.8474
  109       0.2203        1.0779      -0.8576        -0.6475       0.8678
  114      -0.1775       -1.2450       1.0675        -0.3197       0.1422
  116      -0.3153       -1.6098       1.2945        -0.6264       0.3111
 Sum       30.1009        4.5004      25.6004        -2.4612      32.5621

 Contributions to Isotropic shielding for atom   96 (    32.6182 ppm):
                         Standard Origin              Atomic Origin
 NLMO      Total    Paramagnetic  Diamagnetic   Paramagnetic  Diamagnetic
   97       2.1275       -1.9818       4.1093         1.3181       0.8095
   99       0.3765       -0.6966       1.0731        -0.2731       0.6496
  102       0.2982       -1.6308       1.9290        -0.4873       0.7855
  105       1.2046        0.9154       0.2893         0.3242       0.8804
  106       0.0830       -1.2169       1.2999        -0.8298       0.9128
  108      26.1037        0.5211      25.5825         0.3077      25.7960
  109       1.7823        1.3599       0.4224        -0.0068       1.7891
 Sum       31.9758       -2.7297      34.7055         0.3530      31.6229

 Contributions to Isotropic shielding for atom   97 (    32.4853 ppm):
                         Standard Origin              Atomic Origin
 NLMO      Total    Paramagnetic  Diamagnetic   Paramagnetic  Diamagnetic
   97       1.3304        0.3597       0.9707         0.5609       0.7695
   98      -0.2305        1.0240      -1.2546        -1.2786       1.0481
  105       0.3739        3.4750      -3.1011        -0.5770       0.9509
  108       2.3259        0.4922       1.8337         0.5503       1.7756
  109      26.3522       -0.1531      26.5053         0.5639      25.7882
  117      -0.0467       -1.2719       1.2252        -0.8962       0.8495
 Sum       30.1051        3.9259      26.1792        -1.0766      31.1817

 Contributions to Isotropic shielding for atom   98 (    31.7133 ppm):
                         Standard Origin              Atomic Origin
 NLMO      Total    Paramagnetic  Diamagnetic   Paramagnetic  Diamagnetic
   71      -0.9723        0.2904      -1.2627        -2.0667       1.0943
   80      -0.1719        1.1862      -1.3581        -1.2634       1.0915
   85       2.1564       -1.7838       3.9402         1.3170       0.8394
  100       0.5837       -0.9478       1.5315        -0.0712       0.6549
  111      25.6738        0.0621      25.6117         0.5440      25.1298
  112       1.6568        2.5105      -0.8537        -0.3500       2.0069
  113      -0.0567       -0.9762       0.9195        -1.1497       1.0930
  121       0.0409       -0.9837       1.0246        -0.7523       0.7932
 Sum       28.9107       -0.6422      29.5529        -3.7924      32.7030

 Contributions to Isotropic shielding for atom   99 (    32.8857 ppm):
                         Standard Origin              Atomic Origin
 NLMO      Total    Paramagnetic  Diamagnetic   Paramagnetic  Diamagnetic
   71      -0.2917        0.1360      -0.4277        -1.0199       0.7282
   83      -0.3737        1.2267      -1.6004        -0.9818       0.6081
   85       1.4604       -0.3977       1.8581         0.7332       0.7273
   87      -0.3536        0.1164      -0.4699        -1.1901       0.8366
   89      -0.2196        0.2832      -0.5028        -1.1394       0.9198
  100       0.4964       -0.7992       1.2956         0.4515       0.0449
  110       0.2299        2.6876      -2.4576        -0.4310       0.6610
  111       1.9872        2.5713      -0.5841         0.0548       1.9324
  112      26.0599       -0.1458      26.2057         0.5775      25.4824
  118       0.6340       -0.9737       1.6077        -0.1892       0.8232
  120       1.2985       -0.3886       1.6871         0.3855       0.9130
  121      -0.3109       -3.0039       2.6930        -1.2843       0.9734
  123       0.3040       -0.7228       1.0268        -0.4598       0.7638
  126       0.0525       -1.7161       1.7686        -0.4398       0.4923
  191      -0.4900        1.1469      -1.6370         0.3713      -0.8614
 Sum       30.4833        0.0202      30.4631        -4.5616      35.0449

 Contributions to Isotropic shielding for atom  100 (    31.0480 ppm):
                         Standard Origin              Atomic Origin
 NLMO      Total    Paramagnetic  Diamagnetic   Paramagnetic  Diamagnetic
   99      -0.5753        0.9374      -1.5127        -1.2467       0.6714
  100       0.9250       -0.2588       1.1838         0.0616       0.8635
  101       0.0276        1.1003      -1.0727        -0.9932       1.0208
  111      -0.0575        0.5672      -0.6246        -1.2324       1.1749
  113      25.9029        0.3883      25.5145         1.0062      24.8967
  114       1.0592        2.3888      -1.3297        -0.6942       1.7533
  121       0.0589       -0.9791       1.0380        -0.5586       0.6175
  195       0.3888       -1.3528       1.7417         1.2123      -0.8235
 Sum       27.7296        2.7913      24.9383        -2.4450      30.1746

 Contributions to Isotropic shielding for atom  101 (    31.5283 ppm):
                         Standard Origin              Atomic Origin
 NLMO      Total    Paramagnetic  Diamagnetic   Paramagnetic  Diamagnetic
   88      -0.2696        0.8181      -1.0877        -0.9999       0.7303
   99      -0.5256        1.2200      -1.7456        -1.4243       0.8986
  100       1.1185       -0.6814       1.7999         0.5369       0.5816
  107      -0.2513       -1.6071       1.3558        -0.7819       0.5306
  113       1.2167        2.8134      -1.5967        -0.6871       1.9038
  114      26.5715        0.2985      26.2730         1.0139      25.5576
  116      -0.4550       -2.3328       1.8779        -0.4876       0.0327
  120       0.6477       -0.6381       1.2858         0.2291       0.4186
  121       0.2480       -2.0773       2.3253        -0.7317       0.9797
  191      -0.6459        1.2164      -1.8623         0.2522      -0.8981
 Sum       27.6550       -0.9703      28.6253        -3.0805      30.7356

 Contributions to Isotropic shielding for atom  102 (    31.6460 ppm):
                         Standard Origin              Atomic Origin
 NLMO      Total    Paramagnetic  Diamagnetic   Paramagnetic  Diamagnetic
   87       0.3038       -0.8243       1.1281         0.0208       0.2831
   97      -0.2610        1.2557      -1.5167        -0.9877       0.7266
   98       1.6006       -0.5856       2.1862         0.6672       0.9334
  105      -0.0783        0.0464      -0.1247        -1.0159       0.9376
  107      -0.3616       -2.4584       2.0968        -0.7229       0.3613
  114      -0.3977       -2.2794       1.8817        -0.2509      -0.1468
  115       0.4422        2.0417      -1.5995        -0.4092       0.8514
  116      26.3106       -0.2888      26.5994         0.6744      25.6362
  117       1.6499        3.5442      -1.8943        -0.2601       1.9100
  118      -0.1494        0.2234      -0.3727        -1.2451       1.0958
  120       0.4498       -1.5829       2.0327        -0.4295       0.8793
  121       0.5956       -2.3794       2.9750        -1.1090       1.7046
  191      -0.6989        1.0148      -1.7136         0.2083      -0.9072
 Sum       29.4056       -2.2725      31.6782        -4.8597      34.2653

 Contributions to Isotropic shielding for atom  103 (    32.2212 ppm):
                         Standard Origin              Atomic Origin
 NLMO      Total    Paramagnetic  Diamagnetic   Paramagnetic  Diamagnetic
   87       0.3982       -0.8340       1.2322         0.1920       0.2062
   94      -0.1454        1.1057      -1.2510        -1.0028       0.8575
   97      -0.2146        1.2838      -1.4984        -1.0279       0.8133
   98       1.9274       -0.6335       2.5609         0.9392       0.9882
  115       0.6272        1.9458      -1.3186        -0.4390       1.0661
  116       1.5733        3.2460      -1.6727        -0.3273       1.9006
  117      26.4481       -0.3066      26.7547         0.6137      25.8344
  118      -0.0154        1.0174      -1.0328        -0.3502       0.3348
  119      -0.1914       -0.4963       0.3049        -1.3437       1.1523
  121       0.2411       -0.8127       1.0538        -0.7851       1.0263
 Sum       30.6485        5.5156      25.1329        -3.5312      34.1797

 Contributions to Isotropic shielding for atom  104 (    31.1681 ppm):
                         Standard Origin              Atomic Origin
 NLMO      Total    Paramagnetic  Diamagnetic   Paramagnetic  Diamagnetic
   81      -0.3926        1.1062      -1.4988        -1.0984       0.7058
   82      -0.0581        0.0090      -0.0672        -1.0066       0.9484
   86      -0.3374        1.3004      -1.6378        -1.4469       1.1094
   87       2.2233       -0.9559       3.1792         1.2868       0.9365
   98       0.3112       -0.9313       1.2425         0.0974       0.2138
  115       1.3304        1.0054       0.3250         0.2058       1.1246
  117      -0.2448       -0.3388       0.0939        -1.4138       1.1690
  118       0.1308        4.4104      -4.2796        -0.7594       0.8902
  119      25.8952       -0.4540      26.3492         0.3846      25.5106
  122       1.0526       -2.3726       3.4251        -0.6233       1.6759
  126       0.1511       -0.8867       1.0377        -0.3012       0.4523
  127      -0.2473       -1.8069       1.5596        -0.6628       0.4155
  193      -0.8681        0.5105      -1.3786         0.1372      -1.0053
  194      -0.1975       -1.0698       0.8724        -0.7750       0.5776
 Sum       28.7488       -0.4739      29.2227        -5.9755      34.7244

 Contributions to Isotropic shielding for atom  105 (    30.5519 ppm):
                         Standard Origin              Atomic Origin
 NLMO      Total    Paramagnetic  Diamagnetic   Paramagnetic  Diamagnetic
  120      -1.3026        0.8948      -2.1975        -2.1961       0.8934
  121      -0.5392        2.1053      -2.6445        -2.1001       1.5609
  122      -2.0908        1.6241      -3.7149        -2.8745       0.7836
  123       1.4090       -0.1240       1.5331        -0.0568       1.4659
  124      26.5202        0.6636      25.8566         1.2926      25.2276
  125       1.1945        4.3441      -3.1496        -0.8479       2.0425
  126       1.2737        1.5955      -0.3218        -0.5983       1.8721
  191       0.5887       -1.6363       2.2250         1.3625      -0.7738
  192       0.8217        0.9583      -0.1366         1.0448      -0.2231
  193       1.5596       -1.2995       2.8592         1.6203      -0.0606
  194       0.4797        1.1530      -0.6733         0.0073       0.4725
 Sum       29.9146       10.2789      19.6357        -3.3462      33.2608

 Contributions to Isotropic shielding for atom  106 (    30.4841 ppm):
                         Standard Origin              Atomic Origin
 NLMO      Total    Paramagnetic  Diamagnetic   Paramagnetic  Diamagnetic
  120      -0.6541        0.3029      -0.9570        -1.2744       0.6204
  121      -0.1307        1.0570      -1.1876        -1.1616       1.0309
  122      -0.6282        0.5013      -1.1296        -0.6641       0.0359
  123       1.2576        0.0036       1.2540        -0.8175       2.0752
  124       0.5500        3.7205      -3.1705        -1.4357       1.9858
  125      25.9806        0.3896      25.5910         0.8116      25.1691
  126       1.1984        1.3755      -0.1770        -0.7975       1.9959
  193       1.0471       -0.8545       1.9016         1.5160      -0.4690
  194       1.0216        0.4995       0.5222         0.7651       0.2565
 Sum       29.6425        6.9954      22.6470        -3.0581      32.7006

 Contributions to Isotropic shielding for atom  107 (    30.6110 ppm):
                         Standard Origin              Atomic Origin
 NLMO      Total    Paramagnetic  Diamagnetic   Paramagnetic  Diamagnetic
  120      -0.9373        0.6437      -1.5810        -1.8442       0.9069
  121      -0.4272        1.4374      -1.8646        -1.9535       1.5263
  122      -1.5466        1.6272      -3.1738        -2.3972       0.8505
  123       2.7225       -4.5403       7.2628         1.3083       1.4142
  124       1.0185        2.0956      -1.0771        -0.8568       1.8753
  125       1.4670        1.9865      -0.5194        -0.5782       2.0453
  126      26.2041        0.9709      25.2332         1.0475      25.1566
  191       0.3498       -1.1027       1.4525         1.1167      -0.7669
  193       0.9759       -0.2049       1.1808         1.0265      -0.0506
 Sum       29.8267        2.9134      26.9133        -3.1309      32.9576

 Contributions to Isotropic shielding for atom  108 (    30.9030 ppm):
                         Standard Origin              Atomic Origin
 NLMO      Total    Paramagnetic  Diamagnetic   Paramagnetic  Diamagnetic
   76      -0.3853       -0.1002      -0.2851        -1.2439       0.8587
   81      -0.3620        0.6278      -0.9898        -1.0849       0.7229
   82       1.0930        0.1698       0.9231        -0.0928       1.1858
   87      -0.1564        0.6830      -0.8394        -1.0415       0.8850
  122       1.0966       -1.1186       2.2152         0.5039       0.5928
  125       0.0716       -1.2984       1.3700        -0.6468       0.7184
  127      26.0042        0.2344      25.7698         0.6516      25.3526
  128       1.5094        3.5211      -2.0117        -0.4769       1.9863
  129       1.8373        0.2716       1.5657         0.0058       1.8315
  193      -1.0392        0.6331      -1.6723         0.2483      -1.2875
 Sum       29.6692        3.6237      26.0455        -3.1772      32.8464

 Contributions to Isotropic shielding for atom  109 (    30.6587 ppm):
                         Standard Origin              Atomic Origin
 NLMO      Total    Paramagnetic  Diamagnetic   Paramagnetic  Diamagnetic
   75      -0.5133        0.4580      -0.9713        -1.2284       0.7151
   76      -0.7080        0.1033      -0.8113        -2.0708       1.3628
   82       1.0695        0.7846       0.2849        -0.1843       1.2538
  122       0.6567       -0.5130       1.1697         0.3504       0.3063
  125       0.0110       -1.2194       1.2304        -0.6074       0.6184
  127       1.5588        3.4693      -1.9105        -0.4107       1.9695
  128      26.0281        0.1361      25.8920         0.7040      25.3241
  129       1.7968        0.6899       1.1069         0.0022       1.7947
 Sum       29.8997        3.9087      25.9909        -3.4450      33.3447

 Contributions to Isotropic shielding for atom  110 (    31.8703 ppm):
                         Standard Origin              Atomic Origin
 NLMO      Total    Paramagnetic  Diamagnetic   Paramagnetic  Diamagnetic
   76      -0.5259       -0.3036      -0.2222        -1.7370       1.2111
   82       1.9183       -2.8674       4.7857         1.1476       0.7707
   86      -0.1348        0.3637      -0.4985        -1.1666       1.0317
  122       0.5209       -0.5860       1.1069        -0.0585       0.5794
  127       1.8414        0.9809       0.8604        -0.0754       1.9168
  128       1.8314        1.6402       0.1913        -0.0647       1.8962
  129      26.3530        0.8148      25.5382         0.6489      25.7041
 Sum       31.8043        0.0425      31.7618        -1.3057      33.1101
 
 1\1\GINC-PCSN02\SP\RHF\STO-3G\C45H56N4O5\ABENIDD\30-May-2024\0\\# nmr=
 giao hf/sto-3g pop=nbo geom=connectivity\\pleiokomenine_C_1a\\0,1\C,0,
 0.,0.,0.\C,0,1.4027,0.,0.\C,0,2.0906,1.2328,0.\C,0,1.4051,2.454,-0.059
 2\C,0,0.0243,2.4405,-0.135\C,0,-0.6643,1.2124,-0.0853\N,0,-0.8622,3.54
 53,-0.3025\C,0,-2.1436,1.5021,-0.0985\C,0,-2.069,2.8764,-0.8574\C,0,-3
 .1288,0.5874,-0.8277\C,0,-1.8206,2.6049,-2.4139\C,0,-2.9156,1.7269,-3.
 0213\C,0,-3.9162,1.3332,-1.9293\N,0,-4.1057,0.225,0.1992\C,0,-4.9845,-
 0.8425,-0.2183\C,0,-5.8354,-0.2991,-1.379\C,0,-5.0013,0.3786,-2.4826\C
 ,0,-2.5888,1.4169,1.3848\C,0,-3.3906,0.1145,1.4486\C,0,-4.5219,2.6663,
 -1.3631\C,0,-3.4125,3.6358,-0.8348\C,0,-3.807,4.312,0.4683\O,0,-4.8124
 ,4.0587,1.1205\O,0,-2.9426,5.3203,0.7721\C,0,-3.2292,5.9904,1.9988\C,0
 ,-0.3069,4.7336,-0.9319\C,0,2.1883,-1.2984,0.0348\C,0,1.5995,-2.4159,-
 0.804\C,0,1.3799,-2.2262,-2.1765\C,0,1.2597,-3.6494,-0.213\C,0,0.6646,
 -4.6719,-0.962\C,0,0.3926,-4.4518,-2.3018\C,0,0.7728,-3.2391,-2.9022\N
 ,0,-0.2803,-5.3123,-3.2097\C,0,0.4376,-3.2921,-4.3729\C,0,-0.7164,-4.3
 713,-4.2684\C,0,-0.1064,-2.0487,-5.0987\C,0,-2.0556,-3.6425,-3.8062\C,
 0,-2.4981,-2.5891,-4.8311\C,0,-1.3957,-2.436,-5.8996\N,0,1.0531,-1.526
 9,-5.9294\C,0,0.6376,-0.6205,-7.0582\C,0,-0.582,-1.0621,-7.8433\C,0,-1
 .7533,-1.3407,-6.9089\C,0,1.749,-3.6467,-5.1196\C,0,1.7991,-2.7525,-6.
 3519\C,0,-1.3294,-3.8285,-6.6158\C,0,-1.0731,-4.9929,-5.6271\C,0,-0.10
 38,-6.0163,-6.1919\O,0,0.6575,-5.8092,-7.1292\O,0,-0.2439,-7.2158,-5.5
 647\C,0,0.6652,-8.2215,-6.0125\C,0,-1.1993,-6.2816,-2.6311\O,0,1.8877,
 -0.7675,-5.1219\H,0,-0.5583,-0.9298,0.0447\H,0,3.1785,1.2466,0.0266\H,
 0,1.9638,3.3823,-0.0736\H,0,-2.6213,-0.3009,-1.2287\H,0,-0.8487,2.134,
 -2.6069\H,0,-1.7844,3.5573,-2.9595\H,0,-3.4188,2.2653,-3.8341\H,0,-2.4
 605,0.8375,-3.475\H,0,-4.4247,-1.7325,-0.5295\H,0,-5.6532,-1.1392,0.59
 75\H,0,-6.5554,0.4295,-0.9844\H,0,-6.4254,-1.1137,-1.8146\H,0,-4.5175,
 -0.4142,-3.068\H,0,-5.667,0.9111,-3.1722\H,0,-3.2361,2.2436,1.6737\H,0
 ,-1.7671,1.3952,2.1105\H,0,-2.7365,-0.7641,1.4799\H,0,-4.0566,0.1012,2
 .3163\H,0,-5.0764,3.1776,-2.1619\H,0,-5.266,2.448,-0.5903\H,0,-3.3659,
 4.4689,-1.5529\H,0,-3.2271,5.2834,2.8346\H,0,-2.4434,6.7309,2.1716\H,0
 ,-4.1889,6.5122,1.9331\H,0,0.2131,4.5021,-1.8683\H,0,0.3959,5.2308,-0.
 2547\H,0,-1.0967,5.4563,-1.1585\H,0,2.267,-1.6105,1.0838\H,0,3.2129,-1
 .1284,-0.3201\H,0,1.6703,-1.2962,-2.6615\H,0,1.4467,-3.8156,0.8457\H,0
 ,0.4083,-5.6077,-0.4791\H,0,-0.3365,-1.2267,-4.4063\H,0,-2.8655,-4.371
 7,-3.6752\H,0,-1.9406,-3.1592,-2.8279\H,0,-3.448,-2.89,-5.2907\H,0,-2.
 6917,-1.6377,-4.3212\H,0,0.4335,0.3516,-6.5903\H,0,1.5159,-0.5101,-7.7
 04\H,0,-0.8626,-0.2678,-8.545\H,0,-0.3474,-1.9387,-8.4542\H,0,-2.0214,
 -0.416,-6.3812\H,0,-2.6325,-1.6287,-7.4978\H,0,2.6274,-3.395,-4.508\H,
 0,1.8731,-4.7034,-5.3513\H,0,2.817,-2.456,-6.6251\H,0,1.3029,-3.1776,-
 7.2215\H,0,-0.6095,-3.8227,-7.4334\H,0,-2.2926,-4.018,-7.1119\H,0,-2.0
 236,-5.5412,-5.5383\H,0,0.472,-8.4704,-7.0605\H,0,0.5033,-9.1178,-5.40
 74\H,0,1.7005,-7.8938,-5.875\H,0,-1.7756,-6.7852,-3.413\H,0,-0.6461,-7
 .0587,-2.0927\H,0,-1.9103,-5.814,-1.9406\\Version=ES64L-G16RevB.01\Sta
 te=1-A\HF=-2300.2193511\RMSD=3.898e-09\Dipole=-1.1765503,-1.0443014,-1
 .1627948\Quadrupole=-16.5265456,13.3852134,3.1413322,2.9995599,9.49785
 52,1.5891662\PG=C01 [X(C45H56N4O5)]\\@


 IN THE UNIVERSE THE DIFFICULT THINGS ARE DONE AS IF THEY WERE EASY.

                                                          -- LAO-TSU
 Job cpu time:       0 days  0 hours 12 minutes 11.4 seconds.
 Elapsed time:       0 days  0 hours  2 minutes  2.9 seconds.
 File lengths (MBytes):  RWF=     67 Int=      0 D2E=      0 Chk=     10 Scr=      1
 Normal termination of Gaussian 16 at Thu May 30 08:51:12 2024.
