 Entering Gaussian System, Link 0=g16
 Input=2_pleiokomenine_2a_c_17.gjf
 Output=2_pleiokomenine_2a_c_17.log
 Initial command:
 /opt/gaussian/g16/l1.exe "/data/abenidd/Elvis/pleiokomenine_C/NMR_HF/2a/2_pleiokomenine_2a_c_17/Gau-27461.inp" -scrdir="/data/abenidd/Elvis/pleiokomenine_C/NMR_HF/2a/2_pleiokomenine_2a_c_17/"
 Entering Link 1 = /opt/gaussian/g16/l1.exe PID=     27463.
  
 Copyright (c) 1988-2017, Gaussian, Inc.  All Rights Reserved.
  
 This is part of the Gaussian(R) 16 program.  It is based on
 the Gaussian(R) 09 system (copyright 2009, Gaussian, Inc.),
 the Gaussian(R) 03 system (copyright 2003, Gaussian, Inc.),
 the Gaussian(R) 98 system (copyright 1998, Gaussian, Inc.),
 the Gaussian(R) 94 system (copyright 1995, Gaussian, Inc.),
 the Gaussian 92(TM) system (copyright 1992, Gaussian, Inc.),
 the Gaussian 90(TM) system (copyright 1990, Gaussian, Inc.),
 the Gaussian 88(TM) system (copyright 1988, Gaussian, Inc.),
 the Gaussian 86(TM) system (copyright 1986, Carnegie Mellon
 University), and the Gaussian 82(TM) system (copyright 1983,
 Carnegie Mellon University). Gaussian is a federally registered
 trademark of Gaussian, Inc.
  
 This software contains proprietary and confidential information,
 including trade secrets, belonging to Gaussian, Inc.
  
 This software is provided under written license and may be
 used, copied, transmitted, or stored only in accord with that
 written license.
  
 The following legend is applicable only to US Government
 contracts under FAR:
  
                    RESTRICTED RIGHTS LEGEND
  
 Use, reproduction and disclosure by the US Government is
 subject to restrictions as set forth in subparagraphs (a)
 and (c) of the Commercial Computer Software - Restricted
 Rights clause in FAR 52.227-19.
  
 Gaussian, Inc.
 340 Quinnipiac St., Bldg. 40, Wallingford CT 06492
  
  
 ---------------------------------------------------------------
 Warning -- This program may not be used in any manner that
 competes with the business of Gaussian, Inc. or will provide
 assistance to any competitor of Gaussian, Inc.  The licensee
 of this program is prohibited from giving any competitor of
 Gaussian, Inc. access to this program.  By using this program,
 the user acknowledges that Gaussian, Inc. is engaged in the
 business of creating and licensing software in the field of
 computational chemistry and represents and warrants to the
 licensee that it is not a competitor of Gaussian, Inc. and that
 it will not use this program in any manner prohibited above.
 ---------------------------------------------------------------
  

 Cite this work as:
 Gaussian 16, Revision B.01,
 M. J. Frisch, G. W. Trucks, H. B. Schlegel, G. E. Scuseria, 
 M. A. Robb, J. R. Cheeseman, G. Scalmani, V. Barone, 
 G. A. Petersson, H. Nakatsuji, X. Li, M. Caricato, A. V. Marenich, 
 J. Bloino, B. G. Janesko, R. Gomperts, B. Mennucci, H. P. Hratchian, 
 J. V. Ortiz, A. F. Izmaylov, J. L. Sonnenberg, D. Williams-Young, 
 F. Ding, F. Lipparini, F. Egidi, J. Goings, B. Peng, A. Petrone, 
 T. Henderson, D. Ranasinghe, V. G. Zakrzewski, J. Gao, N. Rega, 
 G. Zheng, W. Liang, M. Hada, M. Ehara, K. Toyota, R. Fukuda, 
 J. Hasegawa, M. Ishida, T. Nakajima, Y. Honda, O. Kitao, H. Nakai, 
 T. Vreven, K. Throssell, J. A. Montgomery, Jr., J. E. Peralta, 
 F. Ogliaro, M. J. Bearpark, J. J. Heyd, E. N. Brothers, K. N. Kudin, 
 V. N. Staroverov, T. A. Keith, R. Kobayashi, J. Normand, 
 K. Raghavachari, A. P. Rendell, J. C. Burant, S. S. Iyengar, 
 J. Tomasi, M. Cossi, J. M. Millam, M. Klene, C. Adamo, R. Cammi, 
 J. W. Ochterski, R. L. Martin, K. Morokuma, O. Farkas, 
 J. B. Foresman, and D. J. Fox, Gaussian, Inc., Wallingford CT, 2016.
 
 ******************************************
 Gaussian 16:  ES64L-G16RevB.01 20-Dec-2017
                30-May-2024 
 ******************************************
 %nprocshared=8
 Will use up to    8 processors via shared memory.
 ----------------------------------------------
 # nmr=giao hf/sto-3g pop=nbo geom=connectivity
 ----------------------------------------------
 1/38=1,57=2,172=1/1;
 2/12=2,17=6,18=5,40=1/2;
 3/6=3,11=9,25=1,30=1/1,2,3,8;
 4//1;
 5/5=2,38=5/2;
 8/6=1,10=90,11=11/1;
 10/13=100,45=16/2;
 6/7=2,8=2,9=2,10=2,28=1,40=1,64=1/1,7;
 99/9=1/99;
 -----------------
 Pleiokomenine_C_2
 -----------------
 Symbolic Z-matrix:
 Charge =  0 Multiplicity = 1
 C                     0.        0.        0. 
 C                     1.4015    0.        0. 
 C                     2.0807    1.2371    0. 
 C                     1.3852    2.4557   -0.0379 
 C                     0.0023    2.4395   -0.0827 
 C                    -0.673     1.2104   -0.0462 
 N                    -0.8916    3.5396   -0.1754 
 C                    -2.1578    1.4654   -0.007 
 C                    -2.1359    2.8958   -0.6748 
 C                    -3.1195    0.5558   -0.7866 
 C                    -2.0349    2.7243   -2.254 
 C                    -3.2526    1.9775   -2.8126 
 C                    -4.094     1.4407   -1.6381 
 N                    -3.7405   -0.2936    0.2353 
 C                    -4.9404   -0.9958   -0.2021 
 C                    -5.9443   -0.1476   -0.9816 
 C                    -5.2688    0.5884   -2.1382 
 C                    -2.5871    1.3075    1.4717 
 C                    -3.8748    0.4933    1.4525 
 C                    -4.6151    2.7132   -0.886 
 C                    -3.4558    3.6571   -0.4617 
 C                    -3.6844    4.2684    0.9093 
 O                    -4.4895    3.8594    1.7369 
 O                    -2.9248    5.3882    1.0702 
 C                    -3.0586    6.0073    2.3492 
 C                    -0.3735    4.754    -0.7862 
 C                     2.1846   -1.2961    0.0739 
 C                     1.6747   -2.387    -0.8467 
 C                     0.7306   -3.3136   -0.3802 
 C                     2.0746   -2.4182   -2.2006 
 C                     1.5551   -3.3649   -3.0931 
 C                     0.6207   -4.2718   -2.63 
 C                     0.1975   -4.2187   -1.2826 
 N                    -0.018    -5.324    -3.3423 
 C                    -0.9544   -5.1872   -1.1273 
 C                    -0.4889   -6.1939   -2.2358 
 C                    -1.1959   -5.9857    0.1412 
 C                     0.7929   -7.0167   -1.6963 
 C                     0.5252   -7.6674   -0.3358 
 C                    -0.9623   -7.4988    0.0146 
 N                    -2.6302   -5.6932    0.5483 
 C                    -2.7967   -6.1072    1.972 
 C                    -2.5837   -7.6324    2.0598 
 C                    -1.2877   -8.1408    1.3859 
 C                    -2.2099   -4.2704   -1.2292 
 C                    -2.7614   -4.2551    0.2089 
 C                    -1.7337   -8.1284   -1.1968 
 C                    -1.5096   -7.3187   -2.526 
 C                    -2.8241   -7.0026   -3.2217 
 O                    -3.782    -7.77     -3.2343 
 O                    -2.7617   -5.8693   -3.9669 
 C                    -3.9657   -5.5582   -4.6661 
 C                     0.6546   -5.8685   -4.5068 
 O                    -3.5917   -6.3377   -0.1866 
 H                    -0.572    -0.9208    0.0439 
 H                     3.1682    1.2604    0.0306 
 H                     1.9379    3.388    -0.0373 
 H                    -2.5667   -0.11     -1.4635 
 H                    -1.9644    3.7035   -2.7447 
 H                    -1.124     2.1873   -2.547 
 H                    -3.849     2.6507   -3.4413 
 H                    -2.9167    1.1636   -3.4671 
 H                    -4.6211   -1.8216   -0.8508 
 H                    -5.4374   -1.4713    0.6521 
 H                    -6.7324   -0.7972   -1.3804 
 H                    -6.4395    0.5626   -0.3107 
 H                    -4.9097   -0.1515   -2.8656 
 H                    -6.0052    1.2092   -2.6622 
 H                    -2.6849    2.2454    2.0165 
 H                    -1.8467    0.7258    2.0402 
 H                    -3.9396   -0.1509    2.336 
 H                    -4.7553    1.1378    1.4554 
 H                    -5.2533    2.4427   -0.0446 
 H                    -5.2783    3.2778   -1.5572 
 H                    -3.4907    4.5179   -1.1472 
 H                    -4.0782    6.3797    2.488 
 H                    -2.3711    6.8568    2.3876 
 H                    -2.788     5.3077    3.1464 
 H                     0.1034    4.5577   -1.7531 
 H                     0.3579    5.2316   -0.1255 
 H                    -1.1765    5.4789   -0.9504 
 H                     2.1732   -1.6504    1.1129 
 H                     3.2402   -1.1131   -0.1661 
 H                     0.3789   -3.2709    0.6453 
 H                     2.7862   -1.6828   -2.5713 
 H                     1.8764   -3.3633   -4.128 
 H                    -0.5766   -5.574     0.9521 
 H                     1.6971   -6.4012   -1.6156 
 H                     1.0575   -7.797    -2.4234 
 H                     0.8103   -8.7264   -0.3642 
 H                     1.1603   -7.1979    0.4263 
 H                    -3.8109   -5.8235    2.272 
 H                    -2.0678   -5.5508    2.5701 
 H                    -3.4347   -8.1425    1.5914 
 H                    -2.5888   -7.9372    3.1127 
 H                    -1.3283   -9.2328    1.2939 
 H                    -0.4634   -7.9248    2.0793 
 H                    -2.0207   -3.2457   -1.5701 
 H                    -2.9652   -4.6847   -1.8969 
 H                    -3.8139   -3.9668    0.2773 
 H                    -2.1455   -3.6811    0.9082 
 H                    -1.3516   -9.1475   -1.357 
 H                    -2.7918   -8.2856   -0.9752 
 H                    -1.0397   -8.0111   -3.2418 
 H                    -3.8259   -4.5972   -5.1687 
 H                    -4.1734   -6.319    -5.4248 
 H                    -4.8048   -5.4636   -3.9695 
 H                     0.7166   -5.1181   -5.3021 
 H                     0.0904   -6.7135   -4.9135 
 H                     1.6671   -6.2148   -4.2727 
 
 Stoichiometry    C45H56N4O5
 Framework group  C1[X(C45H56N4O5)]
 Deg. of freedom   324
 Full point group                 C1      NOp   1
 Largest Abelian subgroup         C1      NOp   1
 Largest concise Abelian subgroup C1      NOp   1
                         Standard orientation:                         
 ---------------------------------------------------------------------
 Center     Atomic      Atomic             Coordinates (Angstroms)
 Number     Number       Type             X           Y           Z
 ---------------------------------------------------------------------
      1          6           0        1.790103    1.900278   -0.677906
      2          6           0        1.625591    3.284673   -0.821396
      3          6           0        2.759710    4.117967   -0.715928
      4          6           0        4.031237    3.594090   -0.435012
      5          6           0        4.170808    2.229698   -0.251607
      6          6           0        3.049672    1.398246   -0.392282
      7          7           0        5.340957    1.498883    0.086816
      8          6           0        3.480173   -0.038248   -0.242787
      9          6           0        4.778822    0.227140    0.614863
     10          6           0        2.581141   -1.042234    0.494620
     11          6           0        4.356791    0.436816    2.135195
     12          6           0        3.681401   -0.817208    2.704238
     13          6           0        3.433365   -1.817285    1.557991
     14          7           0        1.977135   -1.852838   -0.568159
     15          6           0        1.361982   -3.093588   -0.113967
     16          6           0        2.192676   -3.908535    0.876329
     17          6           0        2.658383   -3.047686    2.050116
     18          6           0        3.602138   -0.607028   -1.677150
     19          6           0        2.951456   -1.984275   -1.641587
     20          6           0        4.858318   -2.228060    1.050815
     21          6           0        5.713387   -0.994590    0.647871
     22          6           0        6.550036   -1.255123   -0.592180
     23          8           0        6.370000   -2.173480   -1.382494
     24          8           0        7.584269   -0.371299   -0.669965
     25          6           0        8.403352   -0.529450   -1.828032
     26          6           0        6.378152    2.221282    0.806982
     27          6           0        0.273253    3.881890   -1.157691
     28          6           0       -0.878303    3.312215   -0.353356
     29          6           0       -1.605206    2.218893   -0.847110
     30          6           0       -1.163246    3.816667    0.934384
     31          6           0       -2.167881    3.254081    1.732433
     32          6           0       -2.877114    2.173212    1.243820
     33          6           0       -2.568944    1.649163   -0.032036
     34          7           0       -3.943672    1.463922    1.861717
     35          6           0       -3.360236    0.371172   -0.204024
     36          6           0       -4.572452    0.791801    0.697371
     37          6           0       -3.921072   -0.078561   -1.541267
     38          6           0       -5.447607    1.904715   -0.081473
     39          6           0       -5.846253    1.440788   -1.485712
     40          6           0       -5.452542   -0.035808   -1.654581
     41          7           0       -3.403350   -1.491098   -1.753885
     42          6           0       -3.571943   -1.829290   -3.197229
     43          6           0       -5.080026   -1.826453   -3.521251
     44          6           0       -5.834224   -0.556495   -3.062316
     45          6           0       -2.328905   -0.740119    0.154549
     46          6           0       -2.028871   -1.403469   -1.202825
     47          6           0       -6.165318   -0.778856   -0.471883
     48          6           0       -5.600748   -0.339751    0.928494
     49          6           0       -5.242857   -1.538379    1.792804
     50          8           0       -5.885321   -2.584261    1.794723
     51          8           0       -4.252334   -1.265494    2.680488
     52          6           0       -3.912855   -2.355333    3.536225
     53          6           0       -4.735264    2.154488    2.862433
     54          8           0       -4.035441   -2.463837   -1.023010
     55          1           0        0.960480    1.210712   -0.792830
     56          1           0        2.659606    5.192687   -0.854104
     57          1           0        4.881227    4.262369   -0.360302
     58          1           0        1.759281   -0.526815    1.010333
     59          1           0        5.234144    0.676135    2.749661
     60          1           0        3.678080    1.290680    2.254465
     61          1           0        4.315650   -1.265244    3.479574
     62          1           0        2.743116   -0.537359    3.199152
     63          1           0        0.414859   -2.832186    0.375251
     64          1           0        1.084605   -3.718565   -0.971425
     65          1           0        1.586709   -4.738844    1.257794
     66          1           0        3.050421   -4.360726    0.366907
     67          1           0        1.778818   -2.729095    2.624903
     68          1           0        3.273689   -3.649672    2.729282
     69          1           0        4.617339   -0.626207   -2.070885
     70          1           0        3.031545    0.000310   -2.395010
     71          1           0        2.462305   -2.206928   -2.596009
     72          1           0        3.687641   -2.769673   -1.463119
     73          1           0        4.796701   -2.964532    0.249418
     74          1           0        5.387340   -2.752773    1.859474
     75          1           0        6.457098   -0.858593    1.448185
     76          1           0        8.909696   -1.499362   -1.807627
     77          1           0        9.162065    0.257947   -1.816056
     78          1           0        7.807253   -0.420831   -2.739657
     79          1           0        5.981454    2.747672    1.682429
     80          1           0        6.862126    2.951044    0.149115
     81          1           0        7.158532    1.537003    1.153421
     82          1           0        0.086103    3.736999   -2.229680
     83          1           0        0.292141    4.968752   -1.003567
     84          1           0       -1.364941    1.791098   -1.814804
     85          1           0       -0.581983    4.647197    1.330565
     86          1           0       -2.362551    3.658450    2.718761
     87          1           0       -3.465594    0.519225   -2.344872
     88          1           0       -4.937453    2.871904   -0.166436
     89          1           0       -6.355674    2.124632    0.496979
     90          1           0       -6.923162    1.585783   -1.636750
     91          1           0       -5.343391    2.065859   -2.234707
     92          1           0       -3.128573   -2.819028   -3.348648
     93          1           0       -3.019947   -1.086405   -3.782054
     94          1           0       -5.552393   -2.694746   -3.045081
     95          1           0       -5.217217   -1.959788   -4.600569
     96          1           0       -6.915024   -0.732223   -3.122053
     97          1           0       -5.612829    0.227953   -3.798899
     98          1           0       -1.397895   -0.390138    0.615800
     99          1           0       -2.749035   -1.484593    0.830710
    100          1           0       -1.611967   -2.411016   -1.121631
    101          1           0       -1.430839   -0.778380   -1.873237
    102          1           0       -7.234652   -0.521756   -0.497433
    103          1           0       -6.161416   -1.863258   -0.603984
    104          1           0       -6.444936    0.093550    1.487234
    105          1           0       -3.063317   -2.048952    4.152737
    106          1           0       -4.751189   -2.596743    4.196905
    107          1           0       -3.614833   -3.230187    2.949621
    108          1           0       -4.128070    2.380919    3.745321
    109          1           0       -5.560450    1.520361    3.201110
    110          1           0       -5.158045    3.089544    2.479277
 ---------------------------------------------------------------------
 Rotational constants (GHZ):           0.0988827           0.0318334           0.0294023
 Standard basis: STO-3G (5D, 7F)
 There are   326 symmetry adapted cartesian basis functions of A   symmetry.
 There are   326 symmetry adapted basis functions of A   symmetry.
   326 basis functions,   978 primitive gaussians,   326 cartesian basis functions
   197 alpha electrons      197 beta electrons
       nuclear repulsion energy      8132.1999497804 Hartrees.
 NAtoms=  110 NActive=  110 NUniq=  110 SFac= 1.00D+00 NAtFMM=   60 NAOKFM=T Big=T
 Integral buffers will be    131072 words long.
 Raffenetti 1 integral format.
 Two-electron integral symmetry is turned on.
 One-electron integrals computed using PRISM.
 NBasis=   326 RedAO= T EigKep=  1.72D-01  NBF=   326
 NBsUse=   326 1.00D-06 EigRej= -1.00D+00 NBFU=   326
 ExpMin= 1.69D-01 ExpMax= 1.31D+02 ExpMxC= 1.31D+02 IAcc=3 IRadAn=         5 AccDes= 0.00D+00
 Harris functional with IExCor=  205 and IRadAn=       5 diagonalized for initial guess.
 HarFok:  IExCor=  205 AccDes= 0.00D+00 IRadAn=         5 IDoV= 1 UseB2=F ITyADJ=14
 ICtDFT=  3500011 ScaDFX=  1.000000  1.000000  1.000000  1.000000
 FoFCou: FMM=F IPFlag=           0 FMFlag=      100000 FMFlg1=        2001
         NFxFlg=           0 DoJE=T BraDBF=F KetDBF=T FulRan=T
         wScrn=  0.000000 ICntrl=       500 IOpCl=  0 I1Cent=   200000004 NGrid=           0
         NMat0=    1 NMatS0=      1 NMatT0=    0 NMatD0=    1 NMtDS0=    0 NMtDT0=    0
 Petite list used in FoFCou.
 Requested convergence on RMS density matrix=1.00D-08 within 128 cycles.
 Requested convergence on MAX density matrix=1.00D-06.
 Requested convergence on             energy=1.00D-06.
 No special actions if energy rises.
 Integral accuracy reduced to 1.0D-05 until final iterations.
 Initial convergence to 1.0D-05 achieved.  Increase integral accuracy.
 SCF Done:  E(RHF) =  -2300.19871017     A.U. after   16 cycles
            NFock= 16  Conv=0.40D-08     -V/T= 2.0093
 Range of M.O.s used for correlation:     1   326
 NBasis=   326 NAE=   197 NBE=   197 NFC=     0 NFV=     0
 NROrb=    326 NOA=   197 NOB=   197 NVA=   129 NVB=   129
          Differentiating once with respect to magnetic field using GIAOs.
          Electric field/nuclear overlap derivatives assumed to be zero.
 FoFCou: FMM=F IPFlag=           0 FMFlag=      100000 FMFlg1=        2001
         NFxFlg=           0 DoJE=F BraDBF=F KetDBF=T FulRan=T
         wScrn=  0.000000 ICntrl=      6100 IOpCl=  0 I1Cent=           7 NGrid=         110
         NMat0=    1 NMatS0=      1 NMatT0=    0 NMatD0=    1 NMtDS0=    0 NMtDT0=    0
 Symmetry not used in FoFCou.
 FoFJK:  IHMeth= 1 ICntrl=    6127 DoSepK=F KAlg= 0 I1Cent=           0 FoldK=F
 IRaf=         1 NMat=       1 IRICut=       1 DoRegI=T DoRafI=F ISym2E= 0 IDoP0=0 IntGTp=1.
          There are     3 degrees of freedom in the 1st order CPHF.  IDoFFX=0 NUNeed=     3.
      3 vectors produced by pass  0 Test12= 8.47D-13 3.33D-08 XBig12= 1.82D+02 2.46D+00.
 AX will form     3 AO Fock derivatives at one time.
      3 vectors produced by pass  1 Test12= 8.47D-13 3.33D-08 XBig12= 8.44D-01 2.98D-01.
      3 vectors produced by pass  2 Test12= 8.47D-13 3.33D-08 XBig12= 1.88D-02 3.79D-02.
      3 vectors produced by pass  3 Test12= 8.47D-13 3.33D-08 XBig12= 4.27D-04 5.89D-03.
      3 vectors produced by pass  4 Test12= 8.47D-13 3.33D-08 XBig12= 1.68D-05 1.04D-03.
      3 vectors produced by pass  5 Test12= 8.47D-13 3.33D-08 XBig12= 3.23D-07 9.17D-05.
      3 vectors produced by pass  6 Test12= 8.47D-13 3.33D-08 XBig12= 1.21D-08 2.22D-05.
      3 vectors produced by pass  7 Test12= 8.47D-13 3.33D-08 XBig12= 4.18D-10 3.33D-06.
      3 vectors produced by pass  8 Test12= 8.47D-13 3.33D-08 XBig12= 6.46D-12 3.11D-07.
      2 vectors produced by pass  9 Test12= 8.47D-13 3.33D-08 XBig12= 1.10D-13 5.30D-08.
 InvSVY:  IOpt=1 It=  1 EMax= 3.55D-15
 Solved reduced A of dimension    29 with     3 vectors.
 Calculating GIAO nuclear magnetic shielding tensors.
 SCF GIAO Magnetic shielding tensor (ppm):
      1  C    Isotropic =   125.2087   Anisotropy =   152.1239
   XX=    76.0845   YX=   -38.3168   ZX=   -26.4548
   XY=   -43.9271   YY=    79.8905   ZY=     3.7649
   XZ=   -33.8184   YZ=     2.3491   ZZ=   219.6510
   Eigenvalues:    34.6532   114.3482   226.6246
      2  C    Isotropic =   120.5393   Anisotropy =   156.1342
   XX=    59.6281   YX=    21.8924   ZX=   -33.8121
   XY=    14.3944   YY=    86.8397   ZY=    15.7630
   XZ=   -40.7643   YZ=    16.3429   ZZ=   215.1500
   Eigenvalues:    41.1115    95.8776   224.6288
      3  C    Isotropic =   119.1227   Anisotropy =   149.2545
   XX=   113.7718   YX=     6.3750   ZX=   -19.5374
   XY=     7.6734   YY=    32.4648   ZY=    21.9348
   XZ=   -25.6495   YZ=    25.2562   ZZ=   211.1314
   Eigenvalues:    28.2272   110.5152   218.6257
      4  C    Isotropic =   133.6424   Anisotropy =   142.0290
   XX=    83.6410   YX=   -38.6447   ZX=   -21.8558
   XY=   -30.7651   YY=    93.4651   ZY=     9.2546
   XZ=   -22.7808   YZ=     3.2530   ZZ=   223.8210
   Eigenvalues:    52.5231   120.0757   228.3284
      5  C    Isotropic =   109.2617   Anisotropy =   126.5678
   XX=    53.9700   YX=    19.7722   ZX=   -32.1195
   XY=     6.6403   YY=    87.0910   ZY=    13.1414
   XZ=   -28.4228   YZ=     4.8185   ZZ=   186.7241
   Eigenvalues:    42.4524    91.6924   193.6402
      6  C    Isotropic =   117.7087   Anisotropy =   138.6041
   XX=    95.2400   YX=    -4.3466   ZX=   -18.6955
   XY=     2.0840   YY=    51.4280   ZY=    15.5285
   XZ=   -10.7311   YZ=    17.6880   ZZ=   206.4580
   Eigenvalues:    49.6647    93.3499   210.1114
      7  N    Isotropic =   273.7796   Anisotropy =    81.7422
   XX=   279.5916   YX=   -22.6567   ZX=    22.0237
   XY=   -40.4267   YY=   278.4703   ZY=   -33.7926
   XZ=    15.6368   YZ=   -24.1469   ZZ=   263.2768
   Eigenvalues:   239.8627   253.2016   328.2744
      8  C    Isotropic =   196.2173   Anisotropy =    14.6029
   XX=   201.8303   YX=     4.5291   ZX=    -4.3759
   XY=     8.8929   YY=   195.0269   ZY=     1.3565
   XZ=    -0.3081   YZ=     6.3947   ZZ=   191.7947
   Eigenvalues:   186.7997   195.8996   205.9526
      9  C    Isotropic =   181.0898   Anisotropy =    45.1871
   XX=   187.2701   YX=    18.6404   ZX=    -2.9730
   XY=    13.1262   YY=   197.5432   ZY=    -7.9523
   XZ=     8.1139   YZ=   -21.1129   ZZ=   158.4560
   Eigenvalues:   151.8832   180.1716   211.2145
     10  C    Isotropic =   190.1599   Anisotropy =    28.9185
   XX=   181.2623   YX=    13.4676   ZX=     8.4781
   XY=     9.4305   YY=   195.9131   ZY=     7.9387
   XZ=     5.2859   YZ=     9.1188   ZZ=   193.3042
   Eigenvalues:   174.7326   186.3081   209.4389
     11  C    Isotropic =   213.8519   Anisotropy =    18.5937
   XX=   207.5519   YX=    -0.8417   ZX=    -6.7611
   XY=     4.9111   YY=   209.3506   ZY=     0.2682
   XZ=    -3.9628   YZ=     2.8446   ZZ=   224.6531
   Eigenvalues:   204.7591   210.5488   226.2477
     12  C    Isotropic =   212.9709   Anisotropy =    20.5154
   XX=   207.4221   YX=     5.4383   ZX=     2.0193
   XY=     4.5764   YY=   216.6403   ZY=    10.7939
   XZ=     1.3572   YZ=     8.4651   ZZ=   214.8502
   Eigenvalues:   204.0711   208.1938   226.6478
     13  C    Isotropic =   213.7364   Anisotropy =     7.8777
   XX=   214.5785   YX=    -1.2656   ZX=    -6.1972
   XY=     0.1223   YY=   212.7744   ZY=    -1.8579
   XZ=    -2.5691   YZ=    -3.6415   ZZ=   213.8564
   Eigenvalues:   208.4201   213.8009   218.9882
     14  N    Isotropic =   302.0910   Anisotropy =    52.2236
   XX=   292.7268   YX=    45.8165   ZX=   -26.2612
   XY=    28.5300   YY=   296.5520   ZY=    27.1763
   XZ=   -15.4819   YZ=    27.0510   ZZ=   316.9942
   Eigenvalues:   242.0949   327.2714   336.9067
     15  C    Isotropic =   205.2553   Anisotropy =    32.0170
   XX=   207.4890   YX=    10.9510   ZX=     0.0657
   XY=    14.6903   YY=   214.3670   ZY=   -12.5686
   XZ=     1.2065   YZ=   -10.0707   ZZ=   193.9097
   Eigenvalues:   186.8641   202.3018   226.5999
     16  C    Isotropic =   224.3860   Anisotropy =     8.7094
   XX=   224.9350   YX=     4.6642   ZX=     5.0539
   XY=     0.0442   YY=   224.0971   ZY=     1.5777
   XZ=     4.9253   YZ=    -0.8663   ZZ=   224.1261
   Eigenvalues:   219.1363   223.8295   230.1923
     17  C    Isotropic =   215.3932   Anisotropy =    19.0292
   XX=   215.8929   YX=     6.9892   ZX=     0.2067
   XY=    11.2995   YY=   220.8246   ZY=    -1.2039
   XZ=    -2.9847   YZ=    -2.0977   ZZ=   209.4620
   Eigenvalues:   208.8604   209.2398   228.0793
     18  C    Isotropic =   210.6674   Anisotropy =    36.3565
   XX=   190.2866   YX=     1.7777   ZX=    -1.4809
   XY=     8.1408   YY=   219.4791   ZY=    11.8769
   XZ=     1.1122   YZ=    15.6181   ZZ=   222.2366
   Eigenvalues:   189.2504   207.8468   234.9051
     19  C    Isotropic =   199.8766   Anisotropy =    42.6745
   XX=   198.8587   YX=     9.9309   ZX=   -26.2515
   XY=    13.0035   YY=   191.7011   ZY=     4.4828
   XZ=   -20.1791   YZ=     2.4341   ZZ=   209.0702
   Eigenvalues:   173.3405   197.9631   228.3263
     20  C    Isotropic =   212.1653   Anisotropy =    22.1002
   XX=   222.3203   YX=    -1.3295   ZX=    -9.3319
   XY=     0.1292   YY=   209.2958   ZY=    -5.1082
   XZ=   -10.2226   YZ=    -6.3935   ZZ=   204.8798
   Eigenvalues:   197.8387   211.7584   226.8988
     21  C    Isotropic =   209.0853   Anisotropy =    10.5187
   XX=   209.0758   YX=    -3.0168   ZX=    -4.4066
   XY=    -9.3355   YY=   208.4220   ZY=     0.1302
   XZ=    -6.6489   YZ=    -5.6303   ZZ=   209.7581
   Eigenvalues:   199.2680   211.8902   216.0977
     22  C    Isotropic =    96.4050   Anisotropy =    98.6430
   XX=    37.5638   YX=   -42.0491   ZX=    81.3995
   XY=   -53.2222   YY=   143.5598   ZY=    37.4614
   XZ=    66.9854   YZ=    23.2265   ZZ=   108.0913
   Eigenvalues:   -27.9209   154.9689   162.1670
     23  O    Isotropic =  -134.8663   Anisotropy =   887.8305
   XX=   -55.1886   YX=  -298.2316   ZX=   212.1340
   XY=  -313.0810   YY=  -193.6795   ZY=  -379.0100
   XZ=   195.2265   YZ=  -375.9465   ZZ=  -155.7307
   Eigenvalues:  -571.4335  -290.1860   457.0207
     24  O    Isotropic =   283.8323   Anisotropy =   140.1451
   XX=   332.0012   YX=     3.8619   ZX=    40.2848
   XY=    86.9358   YY=   331.6582   ZY=  -126.1079
   XZ=   116.1901   YZ=   -27.0289   ZZ=   187.8374
   Eigenvalues:   117.0786   357.1559   377.2623
     25  C    Isotropic =   197.3621   Anisotropy =    57.6849
   XX=   201.8732   YX=    -2.6828   ZX=   -27.9697
   XY=    -2.9345   YY=   177.8404   ZY=     2.4001
   XZ=   -27.9172   YZ=     3.0952   ZZ=   212.3727
   Eigenvalues:   177.4445   178.8231   235.8187
     26  C    Isotropic =   209.9111   Anisotropy =    41.8283
   XX=   221.3617   YX=    14.1696   ZX=    12.1160
   XY=    16.0572   YY=   205.3322   ZY=    10.6788
   XZ=    11.3830   YZ=    11.9551   ZZ=   203.0395
   Eigenvalues:   192.6540   199.2826   237.7967
     27  C    Isotropic =   206.6490   Anisotropy =    19.2094
   XX=   217.9215   YX=     3.1503   ZX=    -6.6197
   XY=     1.3307   YY=   203.7999   ZY=    -6.1597
   XZ=    -1.3140   YZ=    -5.5604   ZZ=   198.2254
   Eigenvalues:   194.3157   206.1760   219.4553
     28  C    Isotropic =   119.3027   Anisotropy =   161.5172
   XX=   115.5668   YX=   -74.9173   ZX=    59.9632
   XY=   -67.8365   YY=   140.2759   ZY=   -30.6810
   XZ=    53.3822   YZ=   -22.2030   ZZ=   102.0653
   Eigenvalues:    39.2876    91.6395   226.9808
     29  C    Isotropic =   126.5925   Anisotropy =   147.6600
   XX=   165.4162   YX=   -35.1912   ZX=    52.3575
   XY=   -31.9015   YY=   142.5903   ZY=   -67.6411
   XZ=    40.8006   YZ=   -52.3195   ZZ=    71.7710
   Eigenvalues:    32.5498   122.1953   225.0325
     30  C    Isotropic =   118.9453   Anisotropy =   156.1035
   XX=   128.0312   YX=   -88.5792   ZX=    18.4171
   XY=   -77.9540   YY=   113.0015   ZY=   -48.1810
   XZ=     8.2092   YZ=   -53.3709   ZZ=   115.8034
   Eigenvalues:    26.5391   107.2826   223.0144
     31  C    Isotropic =   133.6626   Anisotropy =   144.4417
   XX=   169.9277   YX=   -39.5125   ZX=    42.1608
   XY=   -44.5257   YY=   152.0659   ZY=   -47.3149
   XZ=    37.2361   YZ=   -52.6184   ZZ=    78.9942
   Eigenvalues:    50.8022   120.2285   229.9571
     32  C    Isotropic =   108.1451   Anisotropy =   131.1981
   XX=   120.0538   YX=   -47.9567   ZX=    49.7867
   XY=   -59.1981   YY=   115.4717   ZY=   -22.5143
   XZ=    58.6555   YZ=    -7.4941   ZZ=    88.9097
   Eigenvalues:    40.3149    88.5098   195.6105
     33  C    Isotropic =   117.0674   Anisotropy =   143.7279
   XX=   147.1629   YX=   -65.2913   ZX=    28.7683
   XY=   -67.2277   YY=   104.3123   ZY=   -33.5843
   XZ=    23.4045   YZ=   -44.8823   ZZ=    99.7269
   Eigenvalues:    48.9411    89.3750   212.8860
     34  N    Isotropic =   271.9190   Anisotropy =    83.8673
   XX=   309.7341   YX=    24.8158   ZX=    -8.8908
   XY=    42.4071   YY=   261.5623   ZY=   -13.4308
   XZ=    -0.4754   YZ=    -4.6972   ZZ=   244.4607
   Eigenvalues:   238.0605   249.8661   327.8306
     35  C    Isotropic =   200.5552   Anisotropy =    12.8879
   XX=   193.9522   YX=    -4.0826   ZX=    -3.9009
   XY=    -3.5078   YY=   198.9977   ZY=     4.2488
   XZ=    -1.2189   YZ=    -5.4541   ZZ=   208.7157
   Eigenvalues:   191.5408   200.9777   209.1471
     36  C    Isotropic =   178.7495   Anisotropy =    38.1901
   XX=   173.0291   YX=    19.4699   ZX=    -5.1227
   XY=     5.0569   YY=   167.0018   ZY=    12.9778
   XZ=     3.6255   YZ=    19.7502   ZZ=   196.2176
   Eigenvalues:   152.9616   179.0773   204.2095
     37  C    Isotropic =   183.7266   Anisotropy =    42.8849
   XX=   176.9887   YX=   -17.0877   ZX=     5.4013
   XY=   -22.5440   YY=   200.2602   ZY=     9.6273
   XZ=     9.9199   YZ=    10.7258   ZZ=   173.9308
   Eigenvalues:   157.2154   181.6478   212.3165
     38  C    Isotropic =   210.8072   Anisotropy =    24.1804
   XX=   211.2149   YX=    -6.2418   ZX=     9.8953
   XY=    -9.6848   YY=   213.8333   ZY=    -1.5184
   XZ=     9.8358   YZ=   -10.4830   ZZ=   207.3734
   Eigenvalues:   199.2239   206.2703   226.9275
     39  C    Isotropic =   212.5938   Anisotropy =    20.2498
   XX=   203.3294   YX=    -4.1210   ZX=    -1.0856
   XY=    -3.6133   YY=   224.2544   ZY=     2.5271
   XZ=     1.8492   YZ=     6.2713   ZZ=   210.1975
   Eigenvalues:   202.4470   209.2407   226.0936
     40  C    Isotropic =   211.3616   Anisotropy =    11.9380
   XX=   211.2798   YX=     2.7121   ZX=     5.9313
   XY=     2.1267   YY=   208.7089   ZY=     2.2526
   XZ=     5.4981   YZ=     1.0877   ZZ=   214.0959
   Eigenvalues:   206.3550   208.4095   219.3202
     41  N    Isotropic =   235.2216   Anisotropy =    22.5378
   XX=   239.4125   YX=     6.3180   ZX=    -9.5524
   XY=     0.1258   YY=   245.1074   ZY=     9.8741
   XZ=   -20.8348   YZ=   -12.2559   ZZ=   221.1450
   Eigenvalues:   212.5417   242.8764   250.2469
     42  C    Isotropic =   193.7773   Anisotropy =    50.2806
   XX=   181.7959   YX=    -0.7028   ZX=     8.1215
   XY=     0.1526   YY=   176.2174   ZY=    14.9530
   XZ=     3.7304   YZ=    10.7176   ZZ=   223.3187
   Eigenvalues:   172.5989   181.4353   227.2978
     43  C    Isotropic =   219.1922   Anisotropy =    11.4136
   XX=   224.2344   YX=    -3.3158   ZX=     4.3019
   XY=    -4.8443   YY=   217.6911   ZY=     6.8784
   XZ=     6.3437   YZ=     8.9559   ZZ=   215.6511
   Eigenvalues:   206.2037   224.5717   226.8013
     44  C    Isotropic =   214.7145   Anisotropy =    22.7067
   XX=   206.7915   YX=    -1.0894   ZX=     8.3038
   XY=    -1.4161   YY=   213.6570   ZY=     9.3253
   XZ=     4.6335   YZ=     8.1151   ZZ=   223.6951
   Eigenvalues:   202.6890   211.6022   229.8523
     45  C    Isotropic =   206.1900   Anisotropy =    36.1793
   XX=   206.9751   YX=   -21.0788   ZX=     5.6298
   XY=   -19.7921   YY=   211.9791   ZY=    10.4670
   XZ=    12.0795   YZ=    11.9305   ZZ=   199.6160
   Eigenvalues:   179.1709   209.0896   230.3096
     46  C    Isotropic =   190.3792   Anisotropy =    57.0793
   XX=   218.9272   YX=    -7.8256   ZX=    19.4923
   XY=     0.7766   YY=   174.0354   ZY=     9.0138
   XZ=    24.0542   YZ=    16.1186   ZZ=   178.1751
   Eigenvalues:   158.1651   184.5405   228.4321
     47  C    Isotropic =   211.0393   Anisotropy =    24.2072
   XX=   204.7389   YX=     7.6759   ZX=     0.1895
   XY=     7.5940   YY=   203.0221   ZY=    -6.3343
   XZ=     1.4801   YZ=    -6.6558   ZZ=   225.3569
   Eigenvalues:   195.2032   210.7373   227.1774
     48  C    Isotropic =   207.5593   Anisotropy =    11.4058
   XX=   204.6534   YX=     2.0681   ZX=     0.9857
   XY=     0.2674   YY=   210.9675   ZY=    -9.0990
   XZ=     0.4135   YZ=    -2.5054   ZZ=   207.0569
   Eigenvalues:   202.2372   205.2775   215.1631
     49  C    Isotropic =    98.4712   Anisotropy =   103.6133
   XX=    95.7058   YX=    47.0849   ZX=   -88.7112
   XY=    34.2343   YY=   144.5106   ZY=    36.6129
   XZ=   -75.0163   YZ=    54.6949   ZZ=    55.1972
   Eigenvalues:   -30.1970   158.0639   167.5467
     50  O    Isotropic =  -132.7757   Anisotropy =   875.2164
   XX=   -51.7271   YX=  -289.4030   ZX=  -328.8768
   XY=  -315.0146   YY=  -378.1415   ZY=   166.6045
   XZ=  -322.0283   YZ=   176.2181   ZZ=    31.5415
   Eigenvalues:  -559.3606  -289.6683   450.7019
     51  O    Isotropic =   286.4756   Anisotropy =   131.7675
   XX=   364.7387   YX=   -51.5215   ZX=    36.4101
   XY=    51.1317   YY=   177.7735   ZY=   140.4712
   XZ=   -19.1048   YZ=    57.3352   ZZ=   316.9146
   Eigenvalues:   126.3503   358.7559   374.3206
     52  C    Isotropic =   197.5641   Anisotropy =    57.0936
   XX=   182.4936   YX=   -11.7936   ZX=     8.4071
   XY=   -10.7683   YY=   207.8170   ZY=   -26.5701
   XZ=     8.3898   YZ=   -26.8254   ZZ=   202.3818
   Eigenvalues:   177.2185   179.8474   235.6266
     53  C    Isotropic =   210.7436   Anisotropy =    42.1486
   XX=   206.6409   YX=   -11.8966   ZX=   -15.9273
   XY=   -10.4562   YY=   205.9400   ZY=    12.8933
   XZ=   -16.7108   YZ=    11.3886   ZZ=   219.6501
   Eigenvalues:   194.2295   199.1587   238.8427
     54  O    Isotropic =    79.0434   Anisotropy =   397.1616
   XX=    15.7941   YX=   128.0649   ZX=   -79.9232
   XY=   105.9637   YY=   174.8946   ZY=  -149.2229
   XZ=   -76.5114   YZ=  -171.5291   ZZ=    46.4414
   Eigenvalues:   -62.1219   -44.5657   343.8177
     55  H    Isotropic =    26.3998   Anisotropy =    17.1971
   XX=    33.6388   YX=    -5.1455   ZX=     0.3003
   XY=    -6.7446   YY=    28.8468   ZY=    -0.2657
   XZ=     2.9880   YZ=    -2.4326   ZZ=    16.7139
   Eigenvalues:    16.4972    24.8377    37.8645
     56  H    Isotropic =    25.6947   Anisotropy =     6.6842
   XX=    29.5503   YX=     1.5604   ZX=     1.0056
   XY=     0.9745   YY=    27.0748   ZY=    -0.6912
   XZ=     1.2305   YZ=    -0.5352   ZZ=    20.4589
   Eigenvalues:    20.2368    26.6964    30.1508
     57  H    Isotropic =    26.5408   Anisotropy =     7.8812
   XX=    28.0736   YX=    -0.6932   ZX=     1.5872
   XY=    -0.5819   YY=    31.1109   ZY=    -2.1585
   XZ=     1.2616   YZ=    -2.3392   ZZ=    20.4380
   Eigenvalues:    19.7872    28.0403    31.7950
     58  H    Isotropic =    31.9825   Anisotropy =    12.5541
   XX=    37.8340   YX=    -3.7193   ZX=    -0.8469
   XY=    -5.3871   YY=    31.0119   ZY=     2.0835
   XZ=    -2.2005   YZ=    -0.2087   ZZ=    27.1015
   Eigenvalues:    26.8490    28.7465    40.3519
     59  H    Isotropic =    32.2678   Anisotropy =    13.8373
   XX=    32.4473   YX=     5.8175   ZX=     4.7596
   XY=     5.1950   YY=    29.2227   ZY=     2.1752
   XZ=     6.3663   YZ=     1.2895   ZZ=    35.1334
   Eigenvalues:    24.6221    30.6887    41.4927
     60  H    Isotropic =    33.1496   Anisotropy =     8.6496
   XX=    30.4497   YX=    -3.7111   ZX=    -2.9800
   XY=    -4.0794   YY=    36.1870   ZY=     3.0074
   XZ=    -0.5143   YZ=     0.0241   ZZ=    32.8119
   Eigenvalues:    28.2918    32.2409    38.9160
     61  H    Isotropic =    32.4548   Anisotropy =    15.1612
   XX=    29.3038   YX=    -0.2065   ZX=     5.6672
   XY=    -0.1997   YY=    28.8315   ZY=    -3.3599
   XZ=     5.5784   YZ=    -3.6850   ZZ=    39.2291
   Eigenvalues:    26.0161    28.7861    42.5623
     62  H    Isotropic =    32.7827   Anisotropy =    12.7699
   XX=    34.5068   YX=    -1.0905   ZX=    -6.2299
   XY=    -1.6044   YY=    29.0586   ZY=     2.7810
   XZ=    -6.0753   YZ=     1.4765   ZZ=    34.7828
   Eigenvalues:    28.0103    29.0419    41.2960
     63  H    Isotropic =    32.0159   Anisotropy =    17.6443
   XX=    43.4625   YX=    -2.5579   ZX=    -1.3285
   XY=    -1.0013   YY=    27.5929   ZY=    -1.4530
   XZ=    -2.0408   YZ=    -1.9354   ZZ=    24.9924
   Eigenvalues:    23.8851    28.3839    43.7788
     64  H    Isotropic =    31.9108   Anisotropy =    13.3677
   XX=    31.2349   YX=     3.4006   ZX=     4.6991
   XY=     4.4490   YY=    32.8145   ZY=     5.0544
   XZ=     4.8160   YZ=     4.2254   ZZ=    31.6830
   Eigenvalues:    26.6397    28.2701    40.8226
     65  H    Isotropic =    32.6563   Anisotropy =    16.8308
   XX=    30.7223   YX=     6.5616   ZX=    -0.8685
   XY=     6.1658   YY=    39.3171   ZY=    -4.2345
   XZ=    -0.9013   YZ=    -4.6113   ZZ=    27.9294
   Eigenvalues:    25.7646    28.3274    43.8768
     66  H    Isotropic =    32.6034   Anisotropy =    11.7124
   XX=    33.4064   YX=    -4.3590   ZX=    -2.7424
   XY=    -3.9462   YY=    36.1066   ZY=     2.9446
   XZ=    -2.7561   YZ=     2.8167   ZZ=    28.2972
   Eigenvalues:    26.9374    30.4612    40.4117
     67  H    Isotropic =    32.7599   Anisotropy =    12.4148
   XX=    35.4974   YX=     0.7748   ZX=    -6.1667
   XY=     0.8405   YY=    28.8556   ZY=     0.0228
   XZ=    -6.2922   YZ=    -0.4438   ZZ=    33.9267
   Eigenvalues:    28.2014    29.0419    41.0364
     68  H    Isotropic =    32.5484   Anisotropy =    14.9317
   XX=    29.6463   YX=    -1.4770   ZX=     4.6226
   XY=    -1.1483   YY=    33.8556   ZY=    -7.2427
   XZ=     4.0237   YZ=    -7.2097   ZZ=    34.1432
   Eigenvalues:    25.4150    29.7273    42.5029
     69  H    Isotropic =    32.9606   Anisotropy =    12.0776
   XX=    38.6728   YX=     0.3891   ZX=    -4.6065
   XY=    -0.3848   YY=    26.9305   ZY=     0.5513
   XZ=    -3.8442   YZ=     1.8615   ZZ=    33.2785
   Eigenvalues:    26.6473    31.2221    41.0124
     70  H    Isotropic =    32.4751   Anisotropy =    10.5781
   XX=    28.4203   YX=    -2.4376   ZX=     3.2088
   XY=    -2.5780   YY=    32.7592   ZY=    -4.2620
   XZ=     4.4070   YZ=    -1.0193   ZZ=    36.2458
   Eigenvalues:    26.5336    31.3645    39.5271
     71  H    Isotropic =    31.9392   Anisotropy =    14.5805
   XX=    28.8396   YX=     2.1420   ZX=     2.0155
   XY=     2.1244   YY=    28.1232   ZY=     4.4638
   XZ=     4.2909   YZ=     4.8301   ZZ=    38.8550
   Eigenvalues:    25.9734    28.1847    41.6596
     72  H    Isotropic =    31.9798   Anisotropy =     9.8800
   XX=    32.7246   YX=    -4.1277   ZX=    -1.9439
   XY=    -4.2871   YY=    33.6534   ZY=     2.2967
   XZ=    -1.4283   YZ=     3.2842   ZZ=    29.5614
   Eigenvalues:    28.0573    29.3158    38.5665
     73  H    Isotropic =    31.4300   Anisotropy =     9.3398
   XX=    30.8701   YX=    -1.4622   ZX=    -1.3496
   XY=    -0.2623   YY=    34.1106   ZY=     4.8628
   XZ=    -1.5362   YZ=     5.2834   ZZ=    29.3093
   Eigenvalues:    25.9752    30.6583    37.6565
     74  H    Isotropic =    32.2684   Anisotropy =    14.9414
   XX=    33.6576   YX=    -4.2383   ZX=     4.6629
   XY=    -3.6095   YY=    32.7611   ZY=    -6.6253
   XZ=     4.0515   YZ=    -6.5746   ZZ=    30.3864
   Eigenvalues:    24.7614    29.8144    42.2293
     75  H    Isotropic =    31.2477   Anisotropy =    12.8770
   XX=    37.0095   YX=     1.3876   ZX=     5.1515
   XY=     0.7705   YY=    26.6497   ZY=    -1.4107
   XZ=     5.2641   YZ=     0.1100   ZZ=    30.0839
   Eigenvalues:    25.8224    28.0884    39.8324
     76  H    Isotropic =    30.5776   Anisotropy =    11.7484
   XX=    33.3352   YX=    -4.4894   ZX=    -2.8865
   XY=    -5.3928   YY=    31.7274   ZY=     1.2999
   XZ=    -3.0679   YZ=     1.5511   ZZ=    26.6701
   Eigenvalues:    25.4784    27.8445    38.4098
     77  H    Isotropic =    30.5427   Anisotropy =    12.2334
   XX=    34.9506   YX=     5.0744   ZX=    -2.8937
   XY=     4.6286   YY=    29.9338   ZY=    -0.2994
   XZ=    -3.6679   YZ=    -0.7068   ZZ=    26.7437
   Eigenvalues:    25.1292    27.8006    38.6983
     78  H    Isotropic =    30.6456   Anisotropy =     7.7366
   XX=    30.4081   YX=    -0.5468   ZX=     0.1079
   XY=    -0.1583   YY=    25.8290   ZY=    -0.7608
   XZ=    -0.9118   YZ=    -1.0028   ZZ=    35.6999
   Eigenvalues:    25.7189    30.4147    35.8034
     79  H    Isotropic =    31.9181   Anisotropy =    11.5886
   XX=    29.3894   YX=     2.3517   ZX=     0.2776
   XY=     2.2931   YY=    33.1046   ZY=     5.9665
   XZ=     2.3965   YZ=     5.6488   ZZ=    33.2604
   Eigenvalues:    27.0824    29.0281    39.6439
     80  H    Isotropic =    30.7366   Anisotropy =    14.7229
   XX=    33.0494   YX=     6.1518   ZX=    -2.4208
   XY=     6.1941   YY=    33.7196   ZY=    -3.2757
   XZ=    -1.6548   YZ=    -3.4749   ZZ=    25.4409
   Eigenvalues:    24.2345    27.4236    40.5519
     81  H    Isotropic =    30.9118   Anisotropy =    11.0165
   XX=    36.9023   YX=    -0.8381   ZX=     3.6208
   XY=    -0.2724   YY=    30.5298   ZY=     0.4308
   XZ=     4.6598   YZ=     0.0087   ZZ=    25.3033
   Eigenvalues:    23.9552    30.5241    38.2561
     82  H    Isotropic =    30.2440   Anisotropy =     8.6928
   XX=    28.2652   YX=     1.6057   ZX=     1.4260
   XY=     2.4370   YY=    27.3684   ZY=    -1.5769
   XZ=     3.6108   YZ=    -1.7506   ZZ=    35.0984
   Eigenvalues:    24.9210    29.7718    36.0392
     83  H    Isotropic =    29.8248   Anisotropy =    12.5536
   XX=    28.3637   YX=     0.6598   ZX=    -0.4955
   XY=     2.4110   YY=    37.9416   ZY=    -0.2914
   XZ=    -2.1884   YZ=    -0.1499   ZZ=    23.1692
   Eigenvalues:    22.8414    28.4391    38.1939
     84  H    Isotropic =    25.9314   Anisotropy =    11.8571
   XX=    29.2851   YX=     5.7917   ZX=    -0.7603
   XY=     5.5449   YY=    26.5676   ZY=    -1.0974
   XZ=    -0.4822   YZ=    -0.4954   ZZ=    21.9416
   Eigenvalues:    21.7116    22.2465    33.8362
     85  H    Isotropic =    25.9351   Anisotropy =     6.8872
   XX=    25.9425   YX=     1.1320   ZX=    -3.4381
   XY=     1.5034   YY=    25.4619   ZY=     2.2477
   XZ=    -4.7886   YZ=     2.9715   ZZ=    26.4009
   Eigenvalues:    20.4969    26.7819    30.5265
     86  H    Isotropic =    26.4830   Anisotropy =     7.5201
   XX=    26.9698   YX=     4.4712   ZX=    -1.0574
   XY=     4.6437   YY=    26.5508   ZY=     3.1746
   XZ=    -2.3379   YZ=     2.8979   ZZ=    25.9284
   Eigenvalues:    20.1955    27.7572    31.4964
     87  H    Isotropic =    31.6055   Anisotropy =     5.6908
   XX=    31.1932   YX=     3.2025   ZX=    -1.2238
   XY=     2.5396   YY=    30.5190   ZY=    -2.1865
   XZ=    -1.5761   YZ=    -0.5251   ZZ=    33.1043
   Eigenvalues:    27.9638    31.4533    35.3994
     88  H    Isotropic =    32.9633   Anisotropy =     8.8875
   XX=    32.1455   YX=     3.1028   ZX=     2.4428
   XY=    -0.8153   YY=    38.6835   ZY=    -0.0992
   XZ=     3.6014   YZ=    -0.2866   ZZ=    28.0609
   Eigenvalues:    26.4146    33.5870    38.8883
     89  H    Isotropic =    32.0237   Anisotropy =    13.6252
   XX=    36.1486   YX=    -5.3151   ZX=    -3.0641
   XY=    -6.6844   YY=    29.0895   ZY=     3.4519
   XZ=    -1.9125   YZ=     3.6331   ZZ=    30.8330
   Eigenvalues:    24.9568    30.0071    41.1072
     90  H    Isotropic =    32.1246   Anisotropy =    15.9859
   XX=    39.1484   YX=    -5.1821   ZX=     4.4299
   XY=    -5.9726   YY=    28.8184   ZY=    -0.0387
   XZ=     4.5014   YZ=    -0.1098   ZZ=    28.4072
   Eigenvalues:    25.0892    28.5028    42.7819
     91  H    Isotropic =    32.7935   Anisotropy =    12.0184
   XX=    28.6741   YX=     1.8264   ZX=     0.0366
   XY=    -0.1076   YY=    35.0835   ZY=    -6.4669
   XZ=     0.1696   YZ=    -5.3797   ZZ=    34.6229
   Eigenvalues:    28.1039    29.4708    40.8058
     92  H    Isotropic =    30.7694   Anisotropy =    13.4067
   XX=    29.4537   YX=    -4.8824   ZX=    -0.2719
   XY=    -4.6450   YY=    33.6296   ZY=     5.6126
   XZ=     0.1069   YZ=     7.0396   ZZ=    29.2250
   Eigenvalues:    23.3082    29.2929    39.7072
     93  H    Isotropic =    31.8890   Anisotropy =    10.2852
   XX=    31.9861   YX=     2.3252   ZX=    -3.4139
   XY=     2.5230   YY=    27.1652   ZY=    -0.3071
   XZ=    -3.7097   YZ=    -1.0287   ZZ=    36.5158
   Eigenvalues:    26.0915    30.8297    38.7458
     94  H    Isotropic =    31.0358   Anisotropy =    12.9151
   XX=    29.9364   YX=     5.7459   ZX=    -0.0438
   XY=     5.7312   YY=    36.2196   ZY=     0.4769
   XZ=     0.4792   YZ=     0.5920   ZZ=    26.9515
   Eigenvalues:    26.5181    26.9436    39.6459
     95  H    Isotropic =    32.2616   Anisotropy =    17.6237
   XX=    28.3383   YX=     0.0298   ZX=     3.4529
   XY=     0.0032   YY=    27.2126   ZY=     5.2909
   XZ=     4.2891   YZ=     5.7614   ZZ=    41.2340
   Eigenvalues:    24.7481    28.0260    44.0107
     96  H    Isotropic =    32.0461   Anisotropy =    15.4688
   XX=    40.2578   YX=     1.2037   ZX=     4.6109
   XY=     1.0859   YY=    26.0768   ZY=     2.6605
   XZ=     4.9096   YZ=     2.6770   ZZ=    29.8037
   Eigenvalues:    24.5708    29.2089    42.3586
     97  H    Isotropic =    32.5889   Anisotropy =    12.6796
   XX=    26.6455   YX=    -0.8792   ZX=     1.7530
   XY=    -1.5499   YY=    32.9194   ZY=    -4.5463
   XZ=     2.1109   YZ=    -4.2270   ZZ=    38.2018
   Eigenvalues:    26.2819    30.4428    41.0420
     98  H    Isotropic =    32.2366   Anisotropy =    14.1874
   XX=    39.8361   YX=    -3.0994   ZX=     5.4758
   XY=    -0.4616   YY=    29.9562   ZY=     2.2164
   XZ=     4.4481   YZ=    -0.5501   ZZ=    26.9175
   Eigenvalues:    24.8590    30.1558    41.6948
     99  H    Isotropic =    30.4566   Anisotropy =    11.3150
   XX=    28.9423   YX=    -1.2547   ZX=    -2.6900
   XY=    -0.9983   YY=    29.6618   ZY=    -5.3869
   XZ=    -4.1322   YZ=    -6.8421   ZZ=    32.7657
   Eigenvalues:    23.2580    30.1118    38.0000
    100  H    Isotropic =    30.5563   Anisotropy =    16.1335
   XX=    35.3423   YX=    -8.5102   ZX=     2.6473
   XY=    -6.0399   YY=    32.2522   ZY=     1.5045
   XZ=     1.8963   YZ=     0.4690   ZZ=    24.0744
   Eigenvalues:    22.6893    27.6677    41.3120
    101  H    Isotropic =    31.1457   Anisotropy =    12.6938
   XX=    38.7182   YX=     1.2450   ZX=    -3.5679
   XY=     2.2647   YY=    27.1727   ZY=     0.2367
   XZ=    -2.0165   YZ=    -0.1148   ZZ=    27.5463
   Eigenvalues:    26.4554    27.3735    39.6083
    102  H    Isotropic =    31.6783   Anisotropy =    15.1936
   XX=    41.6747   YX=     1.7195   ZX=    -0.1921
   XY=     1.2415   YY=    25.2436   ZY=    -0.0048
   XZ=     0.0712   YZ=    -0.0182   ZZ=    28.1164
   Eigenvalues:    25.1113    28.1162    41.8073
    103  H    Isotropic =    29.9872   Anisotropy =    11.2482
   XX=    26.9822   YX=     4.1561   ZX=    -2.0638
   XY=     5.0425   YY=    35.4720   ZY=     1.2244
   XZ=    -0.5189   YZ=    -0.1077   ZZ=    27.5072
   Eigenvalues:    24.3429    28.1327    37.4859
    104  H    Isotropic =    31.3231   Anisotropy =    13.0356
   XX=    35.1236   YX=    -1.2691   ZX=    -5.4874
   XY=    -1.1864   YY=    27.5736   ZY=     1.5327
   XZ=    -6.7000   YZ=     2.8694   ZZ=    31.2721
   Eigenvalues:    25.9311    28.0247    40.0136
    105  H    Isotropic =    30.6188   Anisotropy =     9.9115
   XX=    31.9343   YX=     0.5060   ZX=     4.8904
   XY=     0.4011   YY=    27.0683   ZY=    -1.9750
   XZ=     4.5247   YZ=    -1.5696   ZZ=    32.8539
   Eigenvalues:    25.7569    28.8731    37.2265
    106  H    Isotropic =    30.5394   Anisotropy =    12.7376
   XX=    29.5910   YX=     1.8268   ZX=    -4.6861
   XY=     2.2054   YY=    28.1172   ZY=    -4.7986
   XZ=    -4.2606   YZ=    -4.5092   ZZ=    33.9100
   Eigenvalues:    25.4471    27.1400    39.0311
    107  H    Isotropic =    30.4597   Anisotropy =     8.2155
   XX=    27.7305   YX=    -3.1561   ZX=    -0.7355
   XY=    -3.3388   YY=    34.6516   ZY=    -0.6287
   XZ=    -1.6889   YZ=    -0.3285   ZZ=    28.9971
   Eigenvalues:    25.8974    29.5451    35.9367
    108  H    Isotropic =    30.6609   Anisotropy =    14.1477
   XX=    27.6462   YX=     1.7310   ZX=     1.4458
   XY=     1.9146   YY=    26.6000   ZY=     5.1820
   XZ=     1.7137   YZ=     5.0345   ZZ=    37.7365
   Eigenvalues:    24.2088    27.6812    40.0927
    109  H    Isotropic =    31.2491   Anisotropy =    11.5890
   XX=    32.2510   YX=     2.9329   ZX=    -6.6531
   XY=     2.9490   YY=    29.0185   ZY=     1.5525
   XZ=    -6.3329   YZ=     1.3186   ZZ=    32.4777
   Eigenvalues:    23.9444    30.8278    38.9751
    110  H    Isotropic =    31.8564   Anisotropy =    12.5348
   XX=    30.3005   YX=    -5.1778   ZX=    -1.8290
   XY=    -5.9059   YY=    35.9224   ZY=     3.1469
   XZ=    -0.7613   YZ=     2.5471   ZZ=    29.3462
   Eigenvalues:    26.8129    28.5433    40.2129
 End of Minotr F.D. properties file   721 does not exist.
 End of Minotr F.D. properties file   722 does not exist.
 End of Minotr F.D. properties file   788 does not exist.
 Hyperfine terms turned off by default for NAtoms > 100.

 **********************************************************************

            Population analysis using the SCF Density.

 **********************************************************************

 Orbital symmetries:
       Occupied  (A) (A) (A) (A) (A) (A) (A) (A) (A) (A) (A) (A)
                 (A) (A) (A) (A) (A) (A) (A) (A) (A) (A) (A) (A)
                 (A) (A) (A) (A) (A) (A) (A) (A) (A) (A) (A) (A)
                 (A) (A) (A) (A) (A) (A) (A) (A) (A) (A) (A) (A)
                 (A) (A) (A) (A) (A) (A) (A) (A) (A) (A) (A) (A)
                 (A) (A) (A) (A) (A) (A) (A) (A) (A) (A) (A) (A)
                 (A) (A) (A) (A) (A) (A) (A) (A) (A) (A) (A) (A)
                 (A) (A) (A) (A) (A) (A) (A) (A) (A) (A) (A) (A)
                 (A) (A) (A) (A) (A) (A) (A) (A) (A) (A) (A) (A)
                 (A) (A) (A) (A) (A) (A) (A) (A) (A) (A) (A) (A)
                 (A) (A) (A) (A) (A) (A) (A) (A) (A) (A) (A) (A)
                 (A) (A) (A) (A) (A) (A) (A) (A) (A) (A) (A) (A)
                 (A) (A) (A) (A) (A) (A) (A) (A) (A) (A) (A) (A)
                 (A) (A) (A) (A) (A) (A) (A) (A) (A) (A) (A) (A)
                 (A) (A) (A) (A) (A) (A) (A) (A) (A) (A) (A) (A)
                 (A) (A) (A) (A) (A) (A) (A) (A) (A) (A) (A) (A)
                 (A) (A) (A) (A) (A)
       Virtual   (A) (A) (A) (A) (A) (A) (A) (A) (A) (A) (A) (A)
                 (A) (A) (A) (A) (A) (A) (A) (A) (A) (A) (A) (A)
                 (A) (A) (A) (A) (A) (A) (A) (A) (A) (A) (A) (A)
                 (A) (A) (A) (A) (A) (A) (A) (A) (A) (A) (A) (A)
                 (A) (A) (A) (A) (A) (A) (A) (A) (A) (A) (A) (A)
                 (A) (A) (A) (A) (A) (A) (A) (A) (A) (A) (A) (A)
                 (A) (A) (A) (A) (A) (A) (A) (A) (A) (A) (A) (A)
                 (A) (A) (A) (A) (A) (A) (A) (A) (A) (A) (A) (A)
                 (A) (A) (A) (A) (A) (A) (A) (A) (A) (A) (A) (A)
                 (A) (A) (A) (A) (A) (A) (A) (A) (A) (A) (A) (A)
                 (A) (A) (A) (A) (A) (A) (A) (A) (A)
 The electronic state is 1-A.
 Alpha  occ. eigenvalues --  -20.30600 -20.29021 -20.24579 -20.22200 -19.91836
 Alpha  occ. eigenvalues --  -15.48038 -15.33527 -15.33497 -15.30631 -11.16485
 Alpha  occ. eigenvalues --  -11.14657 -11.10534 -11.09537 -11.09374 -11.09374
 Alpha  occ. eigenvalues --  -11.09186 -11.08953 -11.08646 -11.08085 -11.07897
 Alpha  occ. eigenvalues --  -11.07017 -11.06791 -11.06432 -11.06375 -11.06209
 Alpha  occ. eigenvalues --  -11.06154 -11.05863 -11.05643 -11.05595 -11.05531
 Alpha  occ. eigenvalues --  -11.05290 -11.05040 -11.04700 -11.04665 -11.04578
 Alpha  occ. eigenvalues --  -11.04342 -11.04140 -11.04073 -11.03876 -11.03837
 Alpha  occ. eigenvalues --  -11.03827 -11.03705 -11.03693 -11.03096 -11.02257
 Alpha  occ. eigenvalues --  -11.02225 -11.02145 -11.02003 -11.01921 -11.01724
 Alpha  occ. eigenvalues --  -11.01664 -11.01580 -11.01395 -11.01293  -1.37821
 Alpha  occ. eigenvalues --   -1.36088  -1.29514  -1.27625  -1.25370  -1.21391
 Alpha  occ. eigenvalues --   -1.20840  -1.18830  -1.10473  -1.09634  -1.08945
 Alpha  occ. eigenvalues --   -1.07518  -1.05729  -1.04840  -1.02670  -1.00777
 Alpha  occ. eigenvalues --   -0.99108  -0.98726  -0.98381  -0.97376  -0.96754
 Alpha  occ. eigenvalues --   -0.96445  -0.95091  -0.94475  -0.94117  -0.92270
 Alpha  occ. eigenvalues --   -0.91603  -0.91458  -0.90225  -0.89479  -0.87930
 Alpha  occ. eigenvalues --   -0.86369  -0.84776  -0.82844  -0.81871  -0.80895
 Alpha  occ. eigenvalues --   -0.80390  -0.79570  -0.78179  -0.77643  -0.77439
 Alpha  occ. eigenvalues --   -0.77229  -0.74418  -0.74124  -0.72737  -0.72201
 Alpha  occ. eigenvalues --   -0.71194  -0.70247  -0.69335  -0.68502  -0.65894
 Alpha  occ. eigenvalues --   -0.65249  -0.64832  -0.64748  -0.63579  -0.63184
 Alpha  occ. eigenvalues --   -0.62351  -0.62162  -0.61544  -0.61225  -0.61112
 Alpha  occ. eigenvalues --   -0.60597  -0.59653  -0.59393  -0.58678  -0.58482
 Alpha  occ. eigenvalues --   -0.58224  -0.58039  -0.57767  -0.57517  -0.57342
 Alpha  occ. eigenvalues --   -0.56793  -0.56690  -0.56572  -0.55731  -0.55240
 Alpha  occ. eigenvalues --   -0.54845  -0.54705  -0.54652  -0.54523  -0.54461
 Alpha  occ. eigenvalues --   -0.54008  -0.53771  -0.53273  -0.52468  -0.51775
 Alpha  occ. eigenvalues --   -0.51664  -0.51006  -0.50935  -0.50603  -0.50351
 Alpha  occ. eigenvalues --   -0.49965  -0.49533  -0.49395  -0.49144  -0.48546
 Alpha  occ. eigenvalues --   -0.48225  -0.48005  -0.47665  -0.47333  -0.47129
 Alpha  occ. eigenvalues --   -0.46489  -0.46069  -0.45876  -0.45561  -0.45080
 Alpha  occ. eigenvalues --   -0.44801  -0.44753  -0.44365  -0.44265  -0.43685
 Alpha  occ. eigenvalues --   -0.43444  -0.43335  -0.43113  -0.42529  -0.42482
 Alpha  occ. eigenvalues --   -0.42248  -0.41934  -0.41431  -0.41091  -0.40687
 Alpha  occ. eigenvalues --   -0.40420  -0.39842  -0.38718  -0.38390  -0.38116
 Alpha  occ. eigenvalues --   -0.37351  -0.37134  -0.36446  -0.35465  -0.34173
 Alpha  occ. eigenvalues --   -0.33292  -0.33045  -0.32053  -0.31268  -0.30784
 Alpha  occ. eigenvalues --   -0.27244  -0.27149  -0.26204  -0.21134  -0.20435
 Alpha  occ. eigenvalues --   -0.15786  -0.15289
 Alpha virt. eigenvalues --    0.26880   0.26986   0.27614   0.28745   0.30485
 Alpha virt. eigenvalues --    0.32944   0.45690   0.48178   0.48472   0.49022
 Alpha virt. eigenvalues --    0.49377   0.50196   0.50330   0.51868   0.52259
 Alpha virt. eigenvalues --    0.53791   0.54201   0.55132   0.55629   0.55987
 Alpha virt. eigenvalues --    0.57132   0.57319   0.57928   0.58160   0.59477
 Alpha virt. eigenvalues --    0.59731   0.59848   0.59957   0.60505   0.61085
 Alpha virt. eigenvalues --    0.61256   0.61669   0.62491   0.62750   0.63014
 Alpha virt. eigenvalues --    0.63223   0.63584   0.64058   0.64413   0.64609
 Alpha virt. eigenvalues --    0.64871   0.64954   0.65309   0.65645   0.65847
 Alpha virt. eigenvalues --    0.66204   0.66429   0.66700   0.67085   0.67443
 Alpha virt. eigenvalues --    0.67515   0.67675   0.67921   0.68161   0.68312
 Alpha virt. eigenvalues --    0.68460   0.69067   0.69363   0.69611   0.69904
 Alpha virt. eigenvalues --    0.70303   0.70487   0.70558   0.70864   0.70969
 Alpha virt. eigenvalues --    0.71197   0.71403   0.71716   0.71900   0.72164
 Alpha virt. eigenvalues --    0.72452   0.73052   0.73423   0.73571   0.73754
 Alpha virt. eigenvalues --    0.74064   0.74344   0.74537   0.74649   0.75024
 Alpha virt. eigenvalues --    0.75187   0.75554   0.75889   0.76062   0.76291
 Alpha virt. eigenvalues --    0.76539   0.76796   0.77234   0.77456   0.77768
 Alpha virt. eigenvalues --    0.78121   0.78164   0.78624   0.79163   0.79378
 Alpha virt. eigenvalues --    0.79516   0.79826   0.80166   0.80634   0.80928
 Alpha virt. eigenvalues --    0.81130   0.81343   0.81556   0.81725   0.82436
 Alpha virt. eigenvalues --    0.82857   0.83952   0.84379   0.84481   0.84638
 Alpha virt. eigenvalues --    0.85642   0.86238   0.86361   0.87570   0.87762
 Alpha virt. eigenvalues --    0.88153   0.89405   0.90800   0.91675   0.94166
 Alpha virt. eigenvalues --    0.94535   0.95680   0.97657   1.01434   1.02334
 Alpha virt. eigenvalues --    1.10454   1.11460   1.15808   1.16142
          Condensed to atoms (all electrons):
 Mulliken charges:
               1
     1  C   -0.074936
     2  C   -0.000658
     3  C   -0.062034
     4  C   -0.090119
     5  C    0.088958
     6  C   -0.012576
     7  N   -0.286093
     8  C    0.017765
     9  C    0.127880
    10  C    0.039870
    11  C   -0.114939
    12  C   -0.105548
    13  C    0.027904
    14  N   -0.291482
    15  C   -0.016293
    16  C   -0.108216
    17  C   -0.102109
    18  C   -0.105518
    19  C   -0.020100
    20  C   -0.110468
    21  C   -0.066456
    22  C    0.319564
    23  O   -0.276927
    24  O   -0.255440
    25  C   -0.055787
    26  C   -0.079220
    27  C   -0.109673
    28  C    0.001420
    29  C   -0.079739
    30  C   -0.061951
    31  C   -0.090027
    32  C    0.093850
    33  C   -0.013975
    34  N   -0.279368
    35  C    0.015584
    36  C    0.135127
    37  C    0.039795
    38  C   -0.116082
    39  C   -0.105434
    40  C    0.040641
    41  N   -0.081073
    42  C   -0.002922
    43  C   -0.097148
    44  C   -0.099029
    45  C   -0.095853
    46  C   -0.003301
    47  C   -0.098523
    48  C   -0.059080
    49  C    0.325191
    50  O   -0.273483
    51  O   -0.255583
    52  C   -0.055636
    53  C   -0.077487
    54  O   -0.461906
    55  H    0.065614
    56  H    0.055070
    57  H    0.057947
    58  H    0.056824
    59  H    0.050659
    60  H    0.055027
    61  H    0.048294
    62  H    0.051303
    63  H    0.054709
    64  H    0.060846
    65  H    0.055408
    66  H    0.050594
    67  H    0.050894
    68  H    0.051649
    69  H    0.064015
    70  H    0.061746
    71  H    0.055678
    72  H    0.051971
    73  H    0.067804
    74  H    0.051518
    75  H    0.064902
    76  H    0.072370
    77  H    0.077160
    78  H    0.074601
    79  H    0.055432
    80  H    0.071657
    81  H    0.076479
    82  H    0.058311
    83  H    0.058248
    84  H    0.053579
    85  H    0.057261
    86  H    0.060007
    87  H    0.053805
    88  H    0.054298
    89  H    0.049451
    90  H    0.053196
    91  H    0.046897
    92  H    0.085032
    93  H    0.055256
    94  H    0.081932
    95  H    0.057644
    96  H    0.058722
    97  H    0.046423
    98  H    0.067302
    99  H    0.091538
   100  H    0.091840
   101  H    0.059221
   102  H    0.045118
   103  H    0.101124
   104  H    0.061431
   105  H    0.073504
   106  H    0.070113
   107  H    0.076499
   108  H    0.073564
   109  H    0.072038
   110  H    0.055117
 Sum of Mulliken charges =  -0.00000
 Mulliken charges with hydrogens summed into heavy atoms:
               1
     1  C   -0.009321
     2  C   -0.000658
     3  C   -0.006964
     4  C   -0.032172
     5  C    0.088958
     6  C   -0.012576
     7  N   -0.286093
     8  C    0.017765
     9  C    0.127880
    10  C    0.096694
    11  C   -0.009253
    12  C   -0.005951
    13  C    0.027904
    14  N   -0.291482
    15  C    0.099262
    16  C   -0.002213
    17  C    0.000435
    18  C    0.020243
    19  C    0.087549
    20  C    0.008854
    21  C   -0.001554
    22  C    0.319564
    23  O   -0.276927
    24  O   -0.255440
    25  C    0.168344
    26  C    0.124348
    27  C    0.006886
    28  C    0.001420
    29  C   -0.026159
    30  C   -0.004689
    31  C   -0.030020
    32  C    0.093850
    33  C   -0.013975
    34  N   -0.279368
    35  C    0.015584
    36  C    0.135127
    37  C    0.093601
    38  C   -0.012334
    39  C   -0.005342
    40  C    0.040641
    41  N   -0.081073
    42  C    0.137366
    43  C    0.042427
    44  C    0.006116
    45  C    0.062987
    46  C    0.147761
    47  C    0.047719
    48  C    0.002351
    49  C    0.325191
    50  O   -0.273483
    51  O   -0.255583
    52  C    0.164480
    53  C    0.123232
    54  O   -0.461906
 Electronic spatial extent (au):  <R**2>=          38042.0549
 Charge=             -0.0000 electrons
 Dipole moment (field-independent basis, Debye):
    X=              2.5900    Y=              3.3203    Z=             -0.2228  Tot=              4.2169
 Quadrupole moment (field-independent basis, Debye-Ang):
   XX=           -293.0782   YY=           -310.5920   ZZ=           -285.9870
   XY=            -20.2951   XZ=             11.1612   YZ=             -0.2020
 Traceless Quadrupole moment (field-independent basis, Debye-Ang):
   XX=              3.4742   YY=            -14.0396   ZZ=             10.5654
   XY=            -20.2951   XZ=             11.1612   YZ=             -0.2020
 Octapole moment (field-independent basis, Debye-Ang**2):
  XXX=            171.7553  YYY=             -0.1693  ZZZ=              0.4224  XYY=             61.2907
  XXY=            132.5851  XXZ=             -3.1060  XZZ=            -38.1475  YZZ=            -30.1317
  YYZ=             22.4561  XYZ=            -28.5580
 Hexadecapole moment (field-independent basis, Debye-Ang**3):
 XXXX=         -32744.9236 YYYY=          -8401.2030 ZZZZ=          -5001.2137 XXXY=           -520.9793
 XXXZ=           -164.9214 YYYX=             -2.4104 YYYZ=             11.7144 ZZZX=           -175.6170
 ZZZY=             22.5162 XXYY=          -7498.0986 XXZZ=          -6259.3459 YYZZ=          -2220.1095
 XXYZ=             57.1903 YYXZ=             -2.9618 ZZXY=             80.1127
 N-N= 8.132199949780D+03 E-N=-2.164108205532D+04  KE= 2.279091760557D+03
 ******************************Gaussian NBO Version 3.1******************************
             N A T U R A L   A T O M I C   O R B I T A L   A N D
          N A T U R A L   B O N D   O R B I T A L   A N A L Y S I S
 ******************************Gaussian NBO Version 3.1******************************
       /RESON  / : Allow strongly delocalized NBO set
       /NLMO   / : Form Natural Localized Molecular Orbitals
       /NMR /    : Analyze NMR Sheilding Tensor 

 Analyzing the SCF density

 Job title: Pleiokomenine_C_2                                               

 Storage needed:    355564 in NPA,    438187 in NBO,   2133784 in NLMO ( 104796000 available)
 GSVD:  LWork=     -108884 too small for GESVD, short by      536270 words or      536270 for optimal perf.


 NATURAL POPULATIONS:  Natural atomic orbital occupancies 
                                                          
   NAO  Atom  No  lang   Type(AO)    Occupancy      Energy
 ----------------------------------------------------------
     1    C    1  S      Cor( 1S)     1.99993     -10.94151
     2    C    1  S      Val( 2S)     1.07857      -0.17262
     3    C    1  px     Val( 2p)     0.98557       0.15337
     4    C    1  py     Val( 2p)     0.98088       0.16170
     5    C    1  pz     Val( 2p)     1.01163       0.01640
 
     6    C    2  S      Cor( 1S)     1.99990     -10.95446
     7    C    2  S      Val( 2S)     1.07865      -0.18142
     8    C    2  px     Val( 2p)     0.94051       0.16882
     9    C    2  py     Val( 2p)     0.95748       0.17801
    10    C    2  pz     Val( 2p)     1.00989       0.02610
 
    11    C    3  S      Cor( 1S)     1.99994     -10.94559
    12    C    3  S      Val( 2S)     1.08452      -0.18089
    13    C    3  px     Val( 2p)     0.96683       0.16468
    14    C    3  py     Val( 2p)     0.97539       0.15772
    15    C    3  pz     Val( 2p)     1.00693       0.01739
 
    16    C    4  S      Cor( 1S)     1.99993     -10.93860
    17    C    4  S      Val( 2S)     1.07206      -0.17121
    18    C    4  px     Val( 2p)     0.98573       0.15285
    19    C    4  py     Val( 2p)     0.97244       0.16294
    20    C    4  pz     Val( 2p)     1.05688       0.00492
 
    21    C    5  S      Cor( 1S)     1.99985     -10.98513
    22    C    5  S      Val( 2S)     1.05878      -0.18115
    23    C    5  px     Val( 2p)     0.88893       0.16385
    24    C    5  py     Val( 2p)     0.96007       0.16876
    25    C    5  pz     Val( 2p)     0.98036       0.01685
 
    26    C    6  S      Cor( 1S)     1.99990     -10.94309
    27    C    6  S      Val( 2S)     1.08237      -0.18358
    28    C    6  px     Val( 2p)     0.97086       0.17506
    29    C    6  py     Val( 2p)     0.94762       0.15634
    30    C    6  pz     Val( 2p)     1.02351       0.02024
 
    31    N    7  S      Cor( 1S)     1.99998     -15.26769
    32    N    7  S      Val( 2S)     1.40583      -0.59353
    33    N    7  px     Val( 2p)     1.17984      -0.01597
    34    N    7  py     Val( 2p)     1.10722      -0.00046
    35    N    7  pz     Val( 2p)     1.58148      -0.18872
 
    36    C    8  S      Cor( 1S)     1.99996     -11.00517
    37    C    8  S      Val( 2S)     1.10896      -0.23040
    38    C    8  px     Val( 2p)     0.96197       0.08185
    39    C    8  py     Val( 2p)     0.96435       0.11120
    40    C    8  pz     Val( 2p)     0.94547       0.10693
 
    41    C    9  S      Cor( 1S)     1.99996     -11.04933
    42    C    9  S      Val( 2S)     1.11220      -0.25556
    43    C    9  px     Val( 2p)     0.92575       0.08614
    44    C    9  py     Val( 2p)     0.85528       0.12234
    45    C    9  pz     Val( 2p)     0.93527       0.08754
 
    46    C   10  S      Cor( 1S)     1.99993     -11.01669
    47    C   10  S      Val( 2S)     1.09786      -0.21929
    48    C   10  px     Val( 2p)     0.96224       0.09739
    49    C   10  py     Val( 2p)     0.94138       0.08494
    50    C   10  pz     Val( 2p)     0.92492       0.10985
 
    51    C   11  S      Cor( 1S)     1.99994     -10.97967
    52    C   11  S      Val( 2S)     1.10386      -0.21411
    53    C   11  px     Val( 2p)     1.01256       0.08317
    54    C   11  py     Val( 2p)     0.99340       0.08754
    55    C   11  pz     Val( 2p)     0.97539       0.08346
 
    56    C   12  S      Cor( 1S)     1.99996     -10.97742
    57    C   12  S      Val( 2S)     1.09136      -0.19963
    58    C   12  px     Val( 2p)     1.01397       0.08574
    59    C   12  py     Val( 2p)     0.98149       0.08869
    60    C   12  pz     Val( 2p)     0.98705       0.09306
 
    61    C   13  S      Cor( 1S)     1.99998     -11.00402
    62    C   13  S      Val( 2S)     1.10508      -0.22774
    63    C   13  px     Val( 2p)     0.93642       0.11340
    64    C   13  py     Val( 2p)     0.94940       0.10988
    65    C   13  pz     Val( 2p)     0.95883       0.09655
 
    66    N   14  S      Cor( 1S)     1.99999     -15.23945
    67    N   14  S      Val( 2S)     1.42840      -0.58386
    68    N   14  px     Val( 2p)     1.44434      -0.10953
    69    N   14  py     Val( 2p)     1.26667      -0.03939
    70    N   14  pz     Val( 2p)     1.14005       0.00754
 
    71    C   15  S      Cor( 1S)     1.99993     -11.00784
    72    C   15  S      Val( 2S)     1.07000      -0.19000
    73    C   15  px     Val( 2p)     0.98183       0.08208
    74    C   15  py     Val( 2p)     0.91108       0.11619
    75    C   15  pz     Val( 2p)     0.99973       0.08306
 
    76    C   16  S      Cor( 1S)     1.99997     -10.97605
    77    C   16  S      Val( 2S)     1.08085      -0.18931
    78    C   16  px     Val( 2p)     1.01168       0.08877
    79    C   16  py     Val( 2p)     0.99408       0.09169
    80    C   16  pz     Val( 2p)     0.98815       0.09312
 
    81    C   17  S      Cor( 1S)     1.99996     -10.97891
    82    C   17  S      Val( 2S)     1.08580      -0.19436
    83    C   17  px     Val( 2p)     1.00925       0.08744
    84    C   17  py     Val( 2p)     0.98680       0.09135
    85    C   17  pz     Val( 2p)     0.98672       0.09295
 
    86    C   18  S      Cor( 1S)     1.99995     -10.97510
    87    C   18  S      Val( 2S)     1.09203      -0.19563
    88    C   18  px     Val( 2p)     1.02576       0.09083
    89    C   18  py     Val( 2p)     0.98288       0.08669
    90    C   18  pz     Val( 2p)     0.97485       0.09731
 
    91    C   19  S      Cor( 1S)     1.99994     -10.99997
    92    C   19  S      Val( 2S)     1.07212      -0.18526
    93    C   19  px     Val( 2p)     0.94872       0.10333
    94    C   19  py     Val( 2p)     0.99585       0.08848
    95    C   19  pz     Val( 2p)     0.95016       0.09779
 
    96    C   20  S      Cor( 1S)     1.99992     -10.98418
    97    C   20  S      Val( 2S)     1.09991      -0.21215
    98    C   20  px     Val( 2p)     0.97172       0.08413
    99    C   20  py     Val( 2p)     0.97532       0.09185
   100    C   20  pz     Val( 2p)     1.02671       0.07566
 
   101    C   21  S      Cor( 1S)     1.99994     -11.00828
   102    C   21  S      Val( 2S)     1.11091      -0.23895
   103    C   21  px     Val( 2p)     0.98851       0.07814
   104    C   21  py     Val( 2p)     0.99217       0.06847
   105    C   21  pz     Val( 2p)     0.99288       0.06747
 
   106    C   22  S      Cor( 1S)     1.99991     -11.11193
   107    C   22  S      Val( 2S)     1.05489      -0.26086
   108    C   22  px     Val( 2p)     0.84172       0.07215
   109    C   22  py     Val( 2p)     0.80988       0.12061
   110    C   22  pz     Val( 2p)     0.89072       0.08265
 
   111    O   23  S      Cor( 1S)     1.99999     -20.09841
   112    O   23  S      Val( 2S)     1.80822      -1.05819
   113    O   23  px     Val( 2p)     1.67140      -0.26490
   114    O   23  py     Val( 2p)     1.35710      -0.13559
   115    O   23  pz     Val( 2p)     1.47437      -0.18029
 
   116    O   24  S      Cor( 1S)     1.99999     -20.21538
   117    O   24  S      Val( 2S)     1.73007      -1.02797
   118    O   24  px     Val( 2p)     1.38947      -0.17064
   119    O   24  py     Val( 2p)     1.64949      -0.28869
   120    O   24  pz     Val( 2p)     1.49801      -0.22525
 
   121    C   25  S      Cor( 1S)     1.99984     -11.04567
   122    C   25  S      Val( 2S)     1.07699      -0.22733
   123    C   25  px     Val( 2p)     0.96344       0.05019
   124    C   25  py     Val( 2p)     1.04051       0.03805
   125    C   25  pz     Val( 2p)     0.88461       0.07459
 
   126    C   26  S      Cor( 1S)     1.99992     -11.01475
   127    C   26  S      Val( 2S)     1.06533      -0.19532
   128    C   26  px     Val( 2p)     0.95584       0.07673
   129    C   26  py     Val( 2p)     1.00412       0.06444
   130    C   26  pz     Val( 2p)     0.99144       0.07470
 
   131    C   27  S      Cor( 1S)     1.99995     -10.98274
   132    C   27  S      Val( 2S)     1.08341      -0.18808
   133    C   27  px     Val( 2p)     0.98016       0.09783
   134    C   27  py     Val( 2p)     1.01320       0.08756
   135    C   27  pz     Val( 2p)     1.00948       0.08897
 
   136    C   28  S      Cor( 1S)     1.99991     -10.95568
   137    C   28  S      Val( 2S)     1.07871      -0.18374
   138    C   28  px     Val( 2p)     0.96148       0.11004
   139    C   28  py     Val( 2p)     0.98081       0.11074
   140    C   28  pz     Val( 2p)     0.96348       0.14803
 
   141    C   29  S      Cor( 1S)     1.99992     -10.94730
   142    C   29  S      Val( 2S)     1.07783      -0.17942
   143    C   29  px     Val( 2p)     0.99701       0.08431
   144    C   29  py     Val( 2p)     0.99885       0.09461
   145    C   29  pz     Val( 2p)     0.99027       0.12949
 
   146    C   30  S      Cor( 1S)     1.99994     -10.94739
   147    C   30  S      Val( 2S)     1.08372      -0.18194
   148    C   30  px     Val( 2p)     0.98529       0.09601
   149    C   30  py     Val( 2p)     0.99337       0.09540
   150    C   30  pz     Val( 2p)     0.97119       0.14300
 
   151    C   31  S      Cor( 1S)     1.99993     -10.94097
   152    C   31  S      Val( 2S)     1.07149      -0.17262
   153    C   31  px     Val( 2p)     1.01644       0.08312
   154    C   31  py     Val( 2p)     1.00502       0.09716
   155    C   31  pz     Val( 2p)     0.99517       0.13267
 
   156    C   32  S      Cor( 1S)     1.99985     -10.98959
   157    C   32  S      Val( 2S)     1.06088      -0.18643
   158    C   32  px     Val( 2p)     0.92773       0.10367
   159    C   32  py     Val( 2p)     0.94884       0.11502
   160    C   32  pz     Val( 2p)     0.94506       0.12516
 
   161    C   33  S      Cor( 1S)     1.99990     -10.95067
   162    C   33  S      Val( 2S)     1.08630      -0.19502
   163    C   33  px     Val( 2p)     0.99752       0.08770
   164    C   33  py     Val( 2p)     0.96050       0.11304
   165    C   33  pz     Val( 2p)     0.97789       0.13121
 
   166    N   34  S      Cor( 1S)     1.99998     -15.26743
   167    N   34  S      Val( 2S)     1.39814      -0.58814
   168    N   34  px     Val( 2p)     1.20098      -0.03430
   169    N   34  py     Val( 2p)     1.43696      -0.12734
   170    N   34  pz     Val( 2p)     1.23335      -0.03776
 
   171    C   35  S      Cor( 1S)     1.99996     -11.01289
   172    C   35  S      Val( 2S)     1.10392      -0.23639
   173    C   35  px     Val( 2p)     0.94905       0.10023
   174    C   35  py     Val( 2p)     0.97140       0.09332
   175    C   35  pz     Val( 2p)     0.96440       0.08042
 
   176    C   36  S      Cor( 1S)     1.99996     -11.05018
   177    C   36  S      Val( 2S)     1.11541      -0.25673
   178    C   36  px     Val( 2p)     0.92145       0.10584
   179    C   36  py     Val( 2p)     0.92203       0.09323
   180    C   36  pz     Val( 2p)     0.86181       0.10677
 
   181    C   37  S      Cor( 1S)     1.99991     -11.03260
   182    C   37  S      Val( 2S)     1.10898      -0.24927
   183    C   37  px     Val( 2p)     0.98608       0.06314
   184    C   37  py     Val( 2p)     0.84347       0.09472
   185    C   37  pz     Val( 2p)     0.99291       0.06294
 
   186    C   38  S      Cor( 1S)     1.99993     -10.97901
   187    C   38  S      Val( 2S)     1.10918      -0.21810
   188    C   38  px     Val( 2p)     1.00830       0.07872
   189    C   38  py     Val( 2p)     0.99120       0.08722
   190    C   38  pz     Val( 2p)     0.97582       0.08988
 
   191    C   39  S      Cor( 1S)     1.99996     -10.97982
   192    C   39  S      Val( 2S)     1.09097      -0.20155
   193    C   39  px     Val( 2p)     1.01735       0.08364
   194    C   39  py     Val( 2p)     0.98034       0.08748
   195    C   39  pz     Val( 2p)     0.98609       0.08816
 
   196    C   40  S      Cor( 1S)     1.99998     -11.01239
   197    C   40  S      Val( 2S)     1.09936      -0.22693
   198    C   40  px     Val( 2p)     0.93118       0.10780
   199    C   40  py     Val( 2p)     0.95771       0.09867
   200    C   40  pz     Val( 2p)     0.95192       0.10470
 
   201    N   41  S      Cor( 1S)     1.99999     -15.41606
   202    N   41  S      Val( 2S)     1.39165      -0.65543
   203    N   41  px     Val( 2p)     1.19552      -0.11887
   204    N   41  py     Val( 2p)     1.19589      -0.10804
   205    N   41  pz     Val( 2p)     1.18342      -0.10806
 
   206    C   42  S      Cor( 1S)     1.99992     -11.03714
   207    C   42  S      Val( 2S)     1.09103      -0.23382
   208    C   42  px     Val( 2p)     1.00470       0.05159
   209    C   42  py     Val( 2p)     1.02446       0.05324
   210    C   42  pz     Val( 2p)     0.82959       0.09506
 
   211    C   43  S      Cor( 1S)     1.99995     -10.99057
   212    C   43  S      Val( 2S)     1.08734      -0.20459
   213    C   43  px     Val( 2p)     0.94917       0.09577
   214    C   43  py     Val( 2p)     1.01041       0.07712
   215    C   43  pz     Val( 2p)     1.01654       0.08246
 
   216    C   44  S      Cor( 1S)     1.99994     -10.98688
   217    C   44  S      Val( 2S)     1.09176      -0.20536
   218    C   44  px     Val( 2p)     1.00951       0.08188
   219    C   44  py     Val( 2p)     0.98470       0.08839
   220    C   44  pz     Val( 2p)     0.97644       0.09032
 
   221    C   45  S      Cor( 1S)     1.99993     -10.98650
   222    C   45  S      Val( 2S)     1.09867      -0.20873
   223    C   45  px     Val( 2p)     0.99569       0.08831
   224    C   45  py     Val( 2p)     0.99120       0.07981
   225    C   45  pz     Val( 2p)     0.97869       0.08949
 
   226    C   46  S      Cor( 1S)     1.99993     -11.03021
   227    C   46  S      Val( 2S)     1.09490      -0.23121
   228    C   46  px     Val( 2p)     0.84789       0.09768
   229    C   46  py     Val( 2p)     1.03176       0.05509
   230    C   46  pz     Val( 2p)     0.97840       0.05631
 
   231    C   47  S      Cor( 1S)     1.99991     -10.97330
   232    C   47  S      Val( 2S)     1.10344      -0.20115
   233    C   47  px     Val( 2p)     0.98638       0.10245
   234    C   47  py     Val( 2p)     1.04218       0.09059
   235    C   47  pz     Val( 2p)     0.92872       0.11059
 
   236    C   48  S      Cor( 1S)     1.99994     -11.00224
[...]

 Contributions to Isotropic shielding for atom   95 (    32.2616 ppm):
                         Standard Origin              Atomic Origin
 NLMO      Total    Paramagnetic  Diamagnetic   Paramagnetic  Diamagnetic
   89      -0.3973        0.3985      -0.7958        -1.1277       0.7304
  102       1.5533        0.3357       1.2176         0.5846       0.9686
  103       0.3037        1.5561      -1.2524        -0.5759       0.8796
  104       0.0640        1.3531      -1.2892        -0.8835       0.9475
  105       0.5239        3.2405      -2.7166        -0.5817       1.1056
  106       1.9078        3.9525      -2.0447         0.0613       1.8465
  107      26.3931       -0.2790      26.6721         0.5700      25.8231
  109       0.0333       -0.0437       0.0769        -1.0944       1.1277
 Sum       30.3818       10.5138      19.8680        -3.0473      33.4291

 Contributions to Isotropic shielding for atom   96 (    32.0461 ppm):
                         Standard Origin              Atomic Origin
 NLMO      Total    Paramagnetic  Diamagnetic   Paramagnetic  Diamagnetic
   89      -0.4946        0.4470      -0.9416        -1.2121       0.7175
   94      -0.2057        1.6618      -1.8675        -0.7303       0.5245
   97       1.0859        1.4241      -0.3382         0.1158       0.9701
   98      -0.4032        2.0676      -2.4708        -1.3984       0.9952
  105       0.5578        3.2343      -2.6765        -0.5241       1.0819
  106       0.0698        0.7820      -0.7122        -1.0441       1.1139
  107       0.3230        1.0904      -0.7675        -0.5382       0.8612
  108      26.4884       -0.4318      26.9202         0.7466      25.7418
  109       1.8490        3.4361      -1.5872         0.1232       1.7258
 Sum       29.2703       13.7116      15.5587        -4.4616      33.7319

 Contributions to Isotropic shielding for atom   97 (    32.5889 ppm):
                         Standard Origin              Atomic Origin
 NLMO      Total    Paramagnetic  Diamagnetic   Paramagnetic  Diamagnetic
   89      -0.4878        0.5175      -1.0053        -1.1007       0.6129
   90      -0.1352        1.3225      -1.4577        -0.8079       0.6726
   94      -0.2599        1.0571      -1.3171        -1.2076       0.9477
   97       1.9934       -1.3902       3.3835         1.0399       0.9535
  102       0.2279       -0.8459       1.0738        -0.3010       0.5288
  105       1.2522        0.3644       0.8877         0.1121       1.1400
  107       0.0530        0.0652      -0.0122        -0.9697       1.0227
  108       1.4419        4.3098      -2.8679        -0.4003       1.8421
  109      26.5824        0.1353      26.4470         0.5046      26.0777
 Sum       30.6677        5.5357      25.1320        -3.1304      33.7981

 Contributions to Isotropic shielding for atom   98 (    32.2366 ppm):
                         Standard Origin              Atomic Origin
 NLMO      Total    Paramagnetic  Diamagnetic   Paramagnetic  Diamagnetic
   69      -0.1496       -0.6942       0.5447        -1.0004       0.8509
   71      -0.0166       -1.0679       1.0513        -1.0424       1.0258
   80       0.3149       -1.0605       1.3754        -0.7796       1.0945
   81       0.2863       -0.8317       1.1180        -0.5193       0.8056
   85       1.1424        0.5341       0.6083         0.5217       0.6208
   89       0.4606       -0.6662       1.1268        -0.4805       0.9410
  110       1.3178       -0.8293       2.1472         0.4936       0.8242
  111      25.8991        0.6299      25.2693         0.4282      25.4709
  112       1.9383        0.2973       1.6410         0.0256       1.9127
  114       0.2351       -0.7656       1.0007        -0.6787       0.9138
  193      -0.4247        0.6402      -1.0649         0.3885      -0.8132
 Sum       31.0037       -3.8140      34.8177        -2.6433      33.6470

 Contributions to Isotropic shielding for atom   99 (    30.4566 ppm):
                         Standard Origin              Atomic Origin
 NLMO      Total    Paramagnetic  Diamagnetic   Paramagnetic  Diamagnetic
   85       0.2962        2.0327      -1.7365        -0.5153       0.8115
   87       0.0540       -1.1315       1.1855        -0.7948       0.8488
   89       0.5360       -0.6779       1.2139        -0.3444       0.8804
   98       0.1330       -0.9713       1.1043        -0.5344       0.6675
  101       0.0620       -0.9980       1.0600        -0.4742       0.5362
  110       0.8894        1.1134      -0.2240         0.1600       0.7295
  111       2.0755       -0.3097       2.3853         0.1603       1.9153
  112      25.5248        0.1052      25.4196         0.5205      25.0043
  115       0.0499       -0.9551       1.0050        -0.5329       0.5828
  118       0.5366       -1.4848       2.0214        -0.2816       0.8182
  122       0.9662       -1.0510       2.0171        -0.0552       1.0214
  123       0.3431       -1.1720       1.5151        -0.4467       0.7898
  124       0.1597       -1.0925       1.2522        -0.5519       0.7116
  126       0.0457       -1.4545       1.5001        -0.7742       0.8198
  193      -0.6142        1.3021      -1.9163         0.5016      -1.1158
  194      -0.7578       -1.1559       0.3980        -0.7292      -0.0286
  195      -0.1691        1.3267      -1.4958         0.8667      -1.0358
 Sum       30.1309       -6.5741      36.7050        -3.8257      33.9566

 Contributions to Isotropic shielding for atom  100 (    30.5563 ppm):
                         Standard Origin              Atomic Origin
 NLMO      Total    Paramagnetic  Diamagnetic   Paramagnetic  Diamagnetic
  100      -0.2117        1.9997      -2.2113        -0.9756       0.7640
  101       0.1619       -1.2623       1.4242        -0.8561       1.0180
  103      -0.0486       -1.7029       1.6543        -0.8737       0.8250
  104       0.2378       -0.8141       1.0519        -0.3719       0.6097
  110       1.1531       -0.3357       1.4888         0.1823       0.9708
  112       0.1440       -0.1314       0.2754        -0.8843       1.0282
  113      25.6572        0.5756      25.0815         0.8355      24.8217
  114       1.9301       -0.2590       2.1891         0.2330       1.6971
  195       0.0136        1.2189      -1.2054         0.8405      -0.8270
 Sum       29.0373       -0.7112      29.7485        -1.8703      30.9076

 Contributions to Isotropic shielding for atom  101 (    31.1457 ppm):
                         Standard Origin              Atomic Origin
 NLMO      Total    Paramagnetic  Diamagnetic   Paramagnetic  Diamagnetic
   71       0.0901       -0.6656       0.7557        -1.0568       1.1469
   84       0.1653       -0.9358       1.1011        -0.6524       0.8177
   89       1.0736       -0.7924       1.8660         0.1787       0.8949
   90      -0.0697       -1.0757       1.0060        -0.7919       0.7222
   99       0.5916       -0.4962       1.0878        -0.1011       0.6927
  100       0.1712        1.6224      -1.4512        -0.2658       0.4370
  103       0.1480       -1.1021       1.2502        -0.5840       0.7320
  104       0.0284       -1.7089       1.7372        -0.7743       0.8027
  110       1.2394       -1.0343       2.2737         0.4182       0.8212
  113       1.6641       -0.1985       1.8626        -0.1757       1.8398
  114      26.2366        0.5873      25.6493         0.6109      25.6256
 Sum       31.3385       -5.7999      37.1383        -3.1941      34.5326

 Contributions to Isotropic shielding for atom  102 (    31.6783 ppm):
                         Standard Origin              Atomic Origin
 NLMO      Total    Paramagnetic  Diamagnetic   Paramagnetic  Diamagnetic
   86      -0.1176        0.4717      -0.5893        -1.0237       0.9061
   94      -0.3279        1.2775      -1.6055        -1.2881       0.9601
   97      -0.2527        1.6147      -1.8674        -0.8720       0.6193
   98       0.7501        2.2758      -1.5257        -0.2317       0.9818
  108      -0.0313       -1.4263       1.3950        -0.8245       0.7932
  115       0.7664        2.7218      -1.9554        -0.3246       1.0910
  116      26.9789       -0.8369      27.8158         0.8937      26.0852
  117       1.8088        4.0255      -2.2167        -0.2305       2.0393
  118      -0.4297        0.7282      -1.1579        -0.7533       0.3236
  119      -0.1758        1.0198      -1.1956        -1.2985       1.1227
  120      -0.3587       -0.1378      -0.2209        -1.1352       0.7765
  121       0.0855        0.3257      -0.2402        -1.1191       1.2046
 Sum       28.6960       12.0596      16.6363        -8.2075      36.9034

 Contributions to Isotropic shielding for atom  103 (    29.9872 ppm):
                         Standard Origin              Atomic Origin
 NLMO      Total    Paramagnetic  Diamagnetic   Paramagnetic  Diamagnetic
   89      -0.6450        0.3979      -1.0429        -1.5361       0.8911
   97      -0.1956        0.7390      -0.9345        -1.0079       0.8124
   98       1.4426       -0.3317       1.7742         0.5517       0.8909
  106      -0.2426       -1.2176       0.9750        -0.8050       0.5624
  115       1.3986       -0.4625       1.8611         0.5144       0.8843
  116       0.9730        4.0829      -3.1099        -0.9445       1.9175
  117      25.2865        0.0114      25.2750         0.6443      24.6422
  118      -0.5730        0.5901      -1.1630        -1.7286       1.1557
  119       0.3402        1.3432      -1.0030        -0.1489       0.4891
  120      -0.2786       -0.4657       0.1871        -1.1665       0.8879
  121       0.2835       -0.2953       0.5788        -1.2859       1.5694
 Sum       27.7896        4.3917      23.3979        -6.9133      34.7029

 Contributions to Isotropic shielding for atom  104 (    31.3231 ppm):
                         Standard Origin              Atomic Origin
 NLMO      Total    Paramagnetic  Diamagnetic   Paramagnetic  Diamagnetic
   81      -0.5800        1.1654      -1.7453        -1.2853       0.7054
   82      -0.1584        0.5450      -0.7034        -1.1334       0.9750
   86      -0.5026        1.7881      -2.2907        -1.6367       1.1341
   87       1.4440        1.1170       0.3269         0.4462       0.9978
   93      -0.0770       -1.6691       1.5922        -0.8477       0.7708
  115       0.5973        4.8038      -4.2065        -0.6338       1.2311
  116      -0.0581       -1.0508       0.9927        -1.2074       1.1493
  118       0.5736        4.3976      -3.8240        -0.6024       1.1760
  119      26.2563       -0.9452      27.2015         0.5299      25.7265
  120      -0.5785        0.1980      -0.7766        -1.4034       0.8249
  121      -0.3702        1.0886      -1.4589        -1.3548       0.9846
  122      -0.1659       -0.6550       0.4891        -1.2334       1.0674
  128      -0.2293       -1.6630       1.4337        -0.7031       0.4738
  191       0.2846       -1.0091       1.2937         0.4447      -0.1601
 Sum       26.4357        8.1113      18.3244       -10.6207      37.0564

 Contributions to Isotropic shielding for atom  105 (    30.6188 ppm):
                         Standard Origin              Atomic Origin
 NLMO      Total    Paramagnetic  Diamagnetic   Paramagnetic  Diamagnetic
  121       0.2598       -0.2636       0.5234        -0.7801       1.0399
  123       1.8790       -2.7238       4.6028        -0.2159       2.0949
  124      25.8948        0.6181      25.2767         0.5890      25.3058
  125       1.0231        1.7639      -0.7408        -0.9574       1.9805
  126       1.7564       -1.0877       2.8441        -0.2394       1.9958
 Sum       30.8130       -1.6931      32.5062        -1.6038      32.4168

 Contributions to Isotropic shielding for atom  106 (    30.5394 ppm):
                         Standard Origin              Atomic Origin
 NLMO      Total    Paramagnetic  Diamagnetic   Paramagnetic  Diamagnetic
  120      -0.2387       -0.4030       0.1644        -1.1770       0.9383
  121       0.2100       -0.1418       0.3518        -1.3001       1.5101
  122      -1.0776        0.7878      -1.8654        -1.8390       0.7613
  123       0.2727        2.8996      -2.6269        -1.2152       1.4879
  124       1.5280        2.0231      -0.4951        -0.5015       2.0295
  125      26.3969        0.4400      25.9569         1.1001      25.2968
  126       1.4110        1.6550      -0.2440        -0.4591       1.8701
  193       1.1041       -1.2937       2.3977         1.1681      -0.0640
 Sum       29.6064        5.9670      23.6394        -4.2235      33.8299

 Contributions to Isotropic shielding for atom  107 (    30.4597 ppm):
                         Standard Origin              Atomic Origin
 NLMO      Total    Paramagnetic  Diamagnetic   Paramagnetic  Diamagnetic
  121       0.5439       -1.0148       1.5587        -1.0272       1.5711
  122      -0.2763        0.6164      -0.8927        -1.1129       0.8366
  123       1.7125       -2.3409       4.0534         0.2947       1.4178
  124       1.8773       -0.7705       2.6478        -0.1552       2.0325
  125       1.1064        2.2781      -1.1718        -0.7619       1.8682
  126      25.9644        0.8247      25.1397         0.8249      25.1396
 Sum       30.9282       -0.4070      31.3352        -1.9377      32.8659

 Contributions to Isotropic shielding for atom  108 (    30.6609 ppm):
                         Standard Origin              Atomic Origin
 NLMO      Total    Paramagnetic  Diamagnetic   Paramagnetic  Diamagnetic
   75      -0.5148        0.4863      -1.0012        -1.2285       0.7137
   76      -0.6567        0.1030      -0.7597        -2.0166       1.3599
   79      -0.2204        0.7849      -1.0053        -0.8544       0.6340
   82       1.9347       -2.1327       4.0675         0.7152       1.2196
  127      25.8752        0.3832      25.4920         0.5421      25.3331
  128       1.6356        2.2991      -0.6634        -0.3343       1.9699
  129       1.4279        1.8830      -0.4551        -0.3734       1.8012
 Sum       29.4815        3.8067      25.6748        -3.5500      33.0314

 Contributions to Isotropic shielding for atom  109 (    31.2491 ppm):
                         Standard Origin              Atomic Origin
 NLMO      Total    Paramagnetic  Diamagnetic   Paramagnetic  Diamagnetic
   76      -0.4594        0.0483      -0.5077        -1.2989       0.8396
   81      -0.6181        1.6176      -2.2356        -1.3539       0.7358
   82       1.1193       -0.5107       1.6300        -0.0912       1.2105
   87      -0.1730        0.7282      -0.9012        -1.0783       0.9054
   93      -0.0821       -1.1298       1.0477        -0.6756       0.5936
  119      -0.2125       -1.7008       1.4883        -0.7255       0.5131
  127       1.8444        2.2342      -0.3897        -0.1437       1.9882
  128      26.0335        0.1477      25.8858         0.6021      25.4314
  129       1.1193        2.8726      -1.7533        -0.6941       1.8133
  190       1.3128        0.0770       1.2358         1.3002       0.0126
 Sum       29.8843        4.3842      25.5001        -4.1590      34.0433

 Contributions to Isotropic shielding for atom  110 (    31.8564 ppm):
                         Standard Origin              Atomic Origin
 NLMO      Total    Paramagnetic  Diamagnetic   Paramagnetic  Diamagnetic
   75      -0.3260        0.7653      -1.0913        -0.9203       0.5943
   76      -1.0272        0.3693      -1.3965        -2.1905       1.1632
   79      -0.3714        1.1092      -1.4806        -0.9267       0.5553
   81      -0.4392        0.8762      -1.3154        -0.6923       0.2530
   82       1.3973       -1.1249       2.5222         0.6194       0.7779
   86      -0.0373        0.0077      -0.0450        -1.1084       1.0711
   93      -0.1375       -1.1409       1.0034        -0.9454       0.8079
  127       1.8973        2.0601      -0.1628        -0.0010       1.8983
  128       1.7697        3.5477      -1.7779        -0.1317       1.9014
  129      26.6985        0.4721      26.2265         0.9829      25.7156
 Sum       29.4241        6.9417      22.4824        -5.3140      34.7381
 
 1\1\GINC-PCSN02\SP\RHF\STO-3G\C45H56N4O5\ABENIDD\30-May-2024\0\\# nmr=
 giao hf/sto-3g pop=nbo geom=connectivity\\Pleiokomenine_C_2\\0,1\C,0,0
 .,0.,0.\C,0,1.4015,0.,0.\C,0,2.0807,1.2371,0.\C,0,1.3852,2.4557,-0.037
 9\C,0,0.0023,2.4395,-0.0827\C,0,-0.673,1.2104,-0.0462\N,0,-0.8916,3.53
 96,-0.1754\C,0,-2.1578,1.4654,-0.007\C,0,-2.1359,2.8958,-0.6748\C,0,-3
 .1195,0.5558,-0.7866\C,0,-2.0349,2.7243,-2.254\C,0,-3.2526,1.9775,-2.8
 126\C,0,-4.094,1.4407,-1.6381\N,0,-3.7405,-0.2936,0.2353\C,0,-4.9404,-
 0.9958,-0.2021\C,0,-5.9443,-0.1476,-0.9816\C,0,-5.2688,0.5884,-2.1382\
 C,0,-2.5871,1.3075,1.4717\C,0,-3.8748,0.4933,1.4525\C,0,-4.6151,2.7132
 ,-0.886\C,0,-3.4558,3.6571,-0.4617\C,0,-3.6844,4.2684,0.9093\O,0,-4.48
 95,3.8594,1.7369\O,0,-2.9248,5.3882,1.0702\C,0,-3.0586,6.0073,2.3492\C
 ,0,-0.3735,4.754,-0.7862\C,0,2.1846,-1.2961,0.0739\C,0,1.6747,-2.387,-
 0.8467\C,0,0.7306,-3.3136,-0.3802\C,0,2.0746,-2.4182,-2.2006\C,0,1.555
 1,-3.3649,-3.0931\C,0,0.6207,-4.2718,-2.63\C,0,0.1975,-4.2187,-1.2826\
 N,0,-0.018,-5.324,-3.3423\C,0,-0.9544,-5.1872,-1.1273\C,0,-0.4889,-6.1
 939,-2.2358\C,0,-1.1959,-5.9857,0.1412\C,0,0.7929,-7.0167,-1.6963\C,0,
 0.5252,-7.6674,-0.3358\C,0,-0.9623,-7.4988,0.0146\N,0,-2.6302,-5.6932,
 0.5483\C,0,-2.7967,-6.1072,1.972\C,0,-2.5837,-7.6324,2.0598\C,0,-1.287
 7,-8.1408,1.3859\C,0,-2.2099,-4.2704,-1.2292\C,0,-2.7614,-4.2551,0.208
 9\C,0,-1.7337,-8.1284,-1.1968\C,0,-1.5096,-7.3187,-2.526\C,0,-2.8241,-
 7.0026,-3.2217\O,0,-3.782,-7.77,-3.2343\O,0,-2.7617,-5.8693,-3.9669\C,
 0,-3.9657,-5.5582,-4.6661\C,0,0.6546,-5.8685,-4.5068\O,0,-3.5917,-6.33
 77,-0.1866\H,0,-0.572,-0.9208,0.0439\H,0,3.1682,1.2604,0.0306\H,0,1.93
 79,3.388,-0.0373\H,0,-2.5667,-0.11,-1.4635\H,0,-1.9644,3.7035,-2.7447\
 H,0,-1.124,2.1873,-2.547\H,0,-3.849,2.6507,-3.4413\H,0,-2.9167,1.1636,
 -3.4671\H,0,-4.6211,-1.8216,-0.8508\H,0,-5.4374,-1.4713,0.6521\H,0,-6.
 7324,-0.7972,-1.3804\H,0,-6.4395,0.5626,-0.3107\H,0,-4.9097,-0.1515,-2
 .8656\H,0,-6.0052,1.2092,-2.6622\H,0,-2.6849,2.2454,2.0165\H,0,-1.8467
 ,0.7258,2.0402\H,0,-3.9396,-0.1509,2.336\H,0,-4.7553,1.1378,1.4554\H,0
 ,-5.2533,2.4427,-0.0446\H,0,-5.2783,3.2778,-1.5572\H,0,-3.4907,4.5179,
 -1.1472\H,0,-4.0782,6.3797,2.488\H,0,-2.3711,6.8568,2.3876\H,0,-2.788,
 5.3077,3.1464\H,0,0.1034,4.5577,-1.7531\H,0,0.3579,5.2316,-0.1255\H,0,
 -1.1765,5.4789,-0.9504\H,0,2.1732,-1.6504,1.1129\H,0,3.2402,-1.1131,-0
 .1661\H,0,0.3789,-3.2709,0.6453\H,0,2.7862,-1.6828,-2.5713\H,0,1.8764,
 -3.3633,-4.128\H,0,-0.5766,-5.574,0.9521\H,0,1.6971,-6.4012,-1.6156\H,
 0,1.0575,-7.797,-2.4234\H,0,0.8103,-8.7264,-0.3642\H,0,1.1603,-7.1979,
 0.4263\H,0,-3.8109,-5.8235,2.272\H,0,-2.0678,-5.5508,2.5701\H,0,-3.434
 7,-8.1425,1.5914\H,0,-2.5888,-7.9372,3.1127\H,0,-1.3283,-9.2328,1.2939
 \H,0,-0.4634,-7.9248,2.0793\H,0,-2.0207,-3.2457,-1.5701\H,0,-2.9652,-4
 .6847,-1.8969\H,0,-3.8139,-3.9668,0.2773\H,0,-2.1455,-3.6811,0.9082\H,
 0,-1.3516,-9.1475,-1.357\H,0,-2.7918,-8.2856,-0.9752\H,0,-1.0397,-8.01
 11,-3.2418\H,0,-3.8259,-4.5972,-5.1687\H,0,-4.1734,-6.319,-5.4248\H,0,
 -4.8048,-5.4636,-3.9695\H,0,0.7166,-5.1181,-5.3021\H,0,0.0904,-6.7135,
 -4.9135\H,0,1.6671,-6.2148,-4.2727\\Version=ES64L-G16RevB.01\State=1-A
 \HF=-2300.1987102\RMSD=3.955e-09\Dipole=1.1797336,1.1589096,0.1328483\
 Quadrupole=-6.3379541,0.875443,5.462511,-17.1471585,0.1521257,-7.46895
 98\PG=C01 [X(C45H56N4O5)]\\@


 TO DRY ONE'S EYES AND LAUGH AT A FALL
 AND BAFFLED, GET UP AND BEGIN AGAIN.
           R. BROWNING
 Job cpu time:       0 days  0 hours 11 minutes 52.4 seconds.
 Elapsed time:       0 days  0 hours  1 minutes 59.5 seconds.
 File lengths (MBytes):  RWF=     67 Int=      0 D2E=      0 Chk=     10 Scr=      1
 Normal termination of Gaussian 16 at Thu May 30 09:43:29 2024.
