 Entering Gaussian System, Link 0=g16
 Input=2_pleiokomenine_2a_c_16.gjf
 Output=2_pleiokomenine_2a_c_16.log
 Initial command:
 /opt/gaussian/g16/l1.exe "/data/abenidd/Elvis/pleiokomenine_C/NMR_HF/2a/2_pleiokomenine_2a_c_16/Gau-27360.inp" -scrdir="/data/abenidd/Elvis/pleiokomenine_C/NMR_HF/2a/2_pleiokomenine_2a_c_16/"
 Entering Link 1 = /opt/gaussian/g16/l1.exe PID=     27362.
  
 Copyright (c) 1988-2017, Gaussian, Inc.  All Rights Reserved.
  
 This is part of the Gaussian(R) 16 program.  It is based on
 the Gaussian(R) 09 system (copyright 2009, Gaussian, Inc.),
 the Gaussian(R) 03 system (copyright 2003, Gaussian, Inc.),
 the Gaussian(R) 98 system (copyright 1998, Gaussian, Inc.),
 the Gaussian(R) 94 system (copyright 1995, Gaussian, Inc.),
 the Gaussian 92(TM) system (copyright 1992, Gaussian, Inc.),
 the Gaussian 90(TM) system (copyright 1990, Gaussian, Inc.),
 the Gaussian 88(TM) system (copyright 1988, Gaussian, Inc.),
 the Gaussian 86(TM) system (copyright 1986, Carnegie Mellon
 University), and the Gaussian 82(TM) system (copyright 1983,
 Carnegie Mellon University). Gaussian is a federally registered
 trademark of Gaussian, Inc.
  
 This software contains proprietary and confidential information,
 including trade secrets, belonging to Gaussian, Inc.
  
 This software is provided under written license and may be
 used, copied, transmitted, or stored only in accord with that
 written license.
  
 The following legend is applicable only to US Government
 contracts under FAR:
  
                    RESTRICTED RIGHTS LEGEND
  
 Use, reproduction and disclosure by the US Government is
 subject to restrictions as set forth in subparagraphs (a)
 and (c) of the Commercial Computer Software - Restricted
 Rights clause in FAR 52.227-19.
  
 Gaussian, Inc.
 340 Quinnipiac St., Bldg. 40, Wallingford CT 06492
  
  
 ---------------------------------------------------------------
 Warning -- This program may not be used in any manner that
 competes with the business of Gaussian, Inc. or will provide
 assistance to any competitor of Gaussian, Inc.  The licensee
 of this program is prohibited from giving any competitor of
 Gaussian, Inc. access to this program.  By using this program,
 the user acknowledges that Gaussian, Inc. is engaged in the
 business of creating and licensing software in the field of
 computational chemistry and represents and warrants to the
 licensee that it is not a competitor of Gaussian, Inc. and that
 it will not use this program in any manner prohibited above.
 ---------------------------------------------------------------
  

 Cite this work as:
 Gaussian 16, Revision B.01,
 M. J. Frisch, G. W. Trucks, H. B. Schlegel, G. E. Scuseria, 
 M. A. Robb, J. R. Cheeseman, G. Scalmani, V. Barone, 
 G. A. Petersson, H. Nakatsuji, X. Li, M. Caricato, A. V. Marenich, 
 J. Bloino, B. G. Janesko, R. Gomperts, B. Mennucci, H. P. Hratchian, 
 J. V. Ortiz, A. F. Izmaylov, J. L. Sonnenberg, D. Williams-Young, 
 F. Ding, F. Lipparini, F. Egidi, J. Goings, B. Peng, A. Petrone, 
 T. Henderson, D. Ranasinghe, V. G. Zakrzewski, J. Gao, N. Rega, 
 G. Zheng, W. Liang, M. Hada, M. Ehara, K. Toyota, R. Fukuda, 
 J. Hasegawa, M. Ishida, T. Nakajima, Y. Honda, O. Kitao, H. Nakai, 
 T. Vreven, K. Throssell, J. A. Montgomery, Jr., J. E. Peralta, 
 F. Ogliaro, M. J. Bearpark, J. J. Heyd, E. N. Brothers, K. N. Kudin, 
 V. N. Staroverov, T. A. Keith, R. Kobayashi, J. Normand, 
 K. Raghavachari, A. P. Rendell, J. C. Burant, S. S. Iyengar, 
 J. Tomasi, M. Cossi, J. M. Millam, M. Klene, C. Adamo, R. Cammi, 
 J. W. Ochterski, R. L. Martin, K. Morokuma, O. Farkas, 
 J. B. Foresman, and D. J. Fox, Gaussian, Inc., Wallingford CT, 2016.
 
 ******************************************
 Gaussian 16:  ES64L-G16RevB.01 20-Dec-2017
                30-May-2024 
 ******************************************
 %nprocshared=8
 Will use up to    8 processors via shared memory.
 ----------------------------------------------
 # nmr=giao hf/sto-3g pop=nbo geom=connectivity
 ----------------------------------------------
 1/38=1,57=2,172=1/1;
 2/12=2,17=6,18=5,40=1/2;
 3/6=3,11=9,25=1,30=1/1,2,3,8;
 4//1;
 5/5=2,38=5/2;
 8/6=1,10=90,11=11/1;
 10/13=100,45=16/2;
 6/7=2,8=2,9=2,10=2,28=1,40=1,64=1/1,7;
 99/9=1/99;
 -----------------
 Pleiokomenine_C_2
 -----------------
 Symbolic Z-matrix:
 Charge =  0 Multiplicity = 1
 C                     0.        0.        0. 
 C                     1.4016    0.        0. 
 C                     2.0959    1.2281    0. 
 C                     1.4114    2.4505   -0.0053 
 C                     0.0276    2.4438   -0.0002 
 C                    -0.661     1.2184    0.0265 
 N                    -0.8552    3.5568   -0.007 
 C                    -2.134     1.497     0.1896 
 C                    -2.1401    2.9466   -0.4349 
 C                    -3.1772    0.6295   -0.5269 
 C                    -2.1614    2.8195   -2.0197 
 C                    -3.431     2.105    -2.5023 
 C                    -4.1935    1.5536   -1.2808 
 N                    -3.7385   -0.2217    0.5264 
 C                    -4.9833   -0.8918    0.1754 
 C                    -6.023    -0.0118   -0.5183 
 C                    -5.4192    0.7339   -1.7085 
 C                    -2.4407    1.3075    1.6968 
 C                    -3.753     0.5381    1.7662 
 C                    -4.6319    2.8153   -0.4611 
 C                    -3.4253    3.7235   -0.0999 
 C                    -3.5335    4.2972    1.3017 
 O                    -4.2499    3.8544    2.191 
 O                    -2.7745    5.4228    1.4198 
 C                    -2.7988    6.0128    2.7193 
 C                    -0.3585    4.7793   -0.621 
 C                     2.1619   -1.3066    0.106 
 C                     2.5865   -1.6647    1.5184 
 C                     1.7114   -1.4875    2.6022 
 C                     3.8563   -2.2424    1.7461 
 C                     4.2767   -2.6008    3.0341 
 C                     3.4169   -2.38      4.0943 
 C                     2.1387   -1.8364    3.8719 
 N                     3.7229   -2.5636    5.4897 
 C                     1.3797   -1.8613    5.1751 
 C                     2.6252   -1.7649    6.1146 
 C                     0.4233   -0.7458    5.5732 
 C                     3.2411   -0.2491    6.0215 
 C                     2.1811    0.8315    6.2266 
 C                     0.8971    0.1588    6.7214 
 N                    -0.8831   -1.4319    5.9347 
 C                    -1.9611   -0.3971    5.9372 
 C                    -1.6474    0.6322    7.0401 
 C                    -0.213     1.2044    6.9874 
 C                     0.4557   -3.1056    5.0411 
 C                    -0.9561   -2.5067    4.9135 
 C                     1.337    -0.6498    7.9867 
 C                     2.2958   -1.8532    7.6287 
 C                     1.7735   -3.1611    8.2136 
 O                     1.8138   -4.2625    7.6841 
 O                     1.3846   -2.968     9.5121 
 C                     0.8272   -4.1272    10.1295 
 C                     3.9167   -3.9712    5.806 
 O                    -0.8948   -2.0609    7.1557 
 H                    -0.5612   -0.9295    0.0437 
 H                     3.184     1.2343    0.0277 
 H                     1.9721    3.378     0.0059 
 H                    -2.6969   -0.0358   -1.2572 
 H                    -2.1131    3.8113   -2.4873 
 H                    -1.2839    2.2791   -2.396 
 H                    -4.0602    2.8022   -3.0699 
 H                    -3.159     1.3013   -3.1979 
 H                    -4.733    -1.7195   -0.501 
 H                    -5.4266   -1.3639    1.0607 
 H                    -6.8501   -0.6399   -0.8698 
 H                    -6.4554    0.6949    0.1981 
 H                    -5.1297    0.002    -2.4739 
 H                    -6.1792    1.3791   -2.1649 
 H                    -1.6763    0.6825    2.1821 
 H                    -2.4542    2.2307    2.2747 
 H                    -3.7673   -0.1242    2.6386 
 H                    -4.6092    1.2083    1.853 
 H                    -5.2138    2.5372    0.4177 
 H                    -5.3294    3.41     -1.0687 
 H                    -3.4953    4.6046   -0.7564 
 H                    -2.1236    6.8728    2.7133 
 H                    -2.4453    5.301     3.472 
 H                    -3.8068    6.3647    2.9598 
 H                     0.0522    4.5996   -1.621 
 H                     0.4206    5.231     0.0023 
 H                    -1.1594    5.5187   -0.716 
 H                     1.5528   -2.1283   -0.2922 
 H                     3.0423   -1.2406   -0.5467 
 H                     0.7114   -1.0959    2.4532 
 H                     4.5383   -2.4034    0.9134 
 H                     5.2706   -3.0014    3.1994 
 H                     0.1904   -0.1357    4.6873 
 H                     3.7527   -0.0485    5.0716 
 H                     4.0323   -0.1406    6.7773 
 H                     2.5431    1.5826    6.9393 
 H                     2.0053    1.3618    5.2818 
 H                    -2.9042   -0.9194    6.1293 
 H                    -1.9904    0.0582    4.9419 
 H                    -1.795     0.1656    8.022 
 H                    -2.369     1.4551    6.9817 
 H                    -0.0045    1.7529    7.914 
 H                    -0.1952    1.9505    6.1811 
 H                     0.6655   -3.7564    4.1842 
 H                     0.4894   -3.7418    5.9223 
 H                    -1.7573   -3.2016    5.1808 
 H                    -1.1443   -2.0398    3.9414 
 H                     0.4723   -0.9552    8.5807 
 H                     1.8861    0.0247    8.6603 
 H                     3.2374   -1.7039    8.1797 
 H                     0.4613   -3.8407    11.1194 
 H                    -0.0177   -4.5089    9.5473 
 H                     1.5942   -4.8978    10.2534 
 H                     3.0413   -4.5797    5.5572 
 H                     4.1584   -4.0863    6.8665 
 H                     4.7753   -4.3763    5.2577 
 
 Stoichiometry    C45H56N4O5
 Framework group  C1[X(C45H56N4O5)]
 Deg. of freedom   324
 Full point group                 C1      NOp   1
 Largest Abelian subgroup         C1      NOp   1
 Largest concise Abelian subgroup C1      NOp   1
                         Standard orientation:                         
 ---------------------------------------------------------------------
 Center     Atomic      Atomic             Coordinates (Angstroms)
 Number     Number       Type             X           Y           Z
 ---------------------------------------------------------------------
      1          6           0       -1.887157    2.298728   -0.739632
      2          6           0       -1.192991    3.341162   -0.110387
      3          6           0       -1.450545    3.626866    1.246935
      4          6           0       -2.391984    2.891565    1.978956
      5          6           0       -3.070393    1.860357    1.353381
      6          6           0       -2.792180    1.561256    0.008158
      7          7           0       -4.057545    0.999083    1.902825
      8          6           0       -3.541107    0.308755   -0.371707
      9          6           0       -4.702133    0.432571    0.690397
     10          6           0       -4.147074    0.155482   -1.772959
     11          6           0       -5.787628    1.457301    0.142831
     12          6           0       -6.412812    0.956851   -1.166364
     13          6           0       -5.643925   -0.290313   -1.646890
     14          7           0       -3.252417   -0.777823   -2.464024
     15          6           0       -3.792631   -1.352593   -3.688593
     16          6           0       -5.236278   -1.846128   -3.594251
     17          6           0       -6.156455   -0.773572   -3.011056
     18          6           0       -2.518699   -0.850672   -0.261997
     19          6           0       -2.742052   -1.726693   -1.487405
     20          6           0       -5.890738   -1.379223   -0.547186
     21          6           0       -5.478725   -0.884131    0.865720
     22          6           0       -4.807530   -1.971533    1.685705
     23          8           0       -4.307368   -2.991693    1.228248
     24          8           0       -4.898101   -1.694220    3.016832
     25          6           0       -4.266599   -2.656784    3.860672
     26          6           0       -4.850803    1.532775    3.000153
     27          6           0       -0.100519    4.084052   -0.852757
     28          6           0        1.298618    3.561011   -0.583989
     29          6           0        1.556125    2.181585   -0.532072
     30          6           0        2.373804    4.467854   -0.444023
     31          6           0        3.681744    4.021552   -0.211132
     32          6           0        3.908542    2.660456   -0.121625
     33          6           0        2.849699    1.750371   -0.292957
     34          7           0        5.151287    2.027336    0.237859
     35          6           0        3.421109    0.354502   -0.301488
     36          6           0        4.664902    0.660012    0.594540
     37          6           0        2.686821   -0.821737    0.326849
     38          6           0        4.160824    0.893094    2.136367
     39          6           0        3.253828   -0.229827    2.636138
     40          6           0        3.302385   -1.375870    1.621132
     41          7           0        2.635196   -1.896407   -0.745772
     42          6           0        1.596337   -2.894138   -0.348020
     43          6           0        2.039036   -3.561706    0.968272
     44          6           0        2.431416   -2.568547    2.085128
     45          6           0        3.476681   -0.013033   -1.812065
     46          6           0        2.392614   -1.093686   -1.970585
     47          6           0        4.824164   -1.708543    1.473317
     48          6           0        5.631460   -0.539733    0.782094
     49          6           0        6.432980   -1.057756   -0.407329
     50          8           0        6.612362   -0.481213   -1.470577
     51          8           0        7.077558   -2.216297   -0.065371
     52          6           0        7.812194   -2.809205   -1.135133
     53          6           0        6.163555    2.232952   -0.787800
     54          8           0        3.813571   -2.570271   -0.955432
     55          1           0       -1.678554    2.027894   -1.771116
     56          1           0       -0.894806    4.417201    1.748226
     57          1           0       -2.560461    3.127183    3.023402
     58          1           0       -4.107425    1.106178   -2.321826
     59          1           0       -6.584936    1.606911    0.882133
     60          1           0       -5.358408    2.452850   -0.025370
     61          1           0       -7.473149    0.722062   -1.009169
     62          1           0       -6.383651    1.756360   -1.917172
     63          1           0       -3.748687   -0.577033   -4.464370
     64          1           0       -3.145733   -2.161566   -4.049474
     65          1           0       -5.590546   -2.117804   -4.595672
     66          1           0       -5.282452   -2.760058   -2.992401
     67          1           0       -6.203874    0.070244   -3.711806
     68          1           0       -7.176315   -1.167214   -2.926700
     69          1           0       -1.485814   -0.476092   -0.319341
     70          1           0       -2.562811   -1.404861    0.674688
     71          1           0       -1.798798   -2.172598   -1.821123
     72          1           0       -3.432021   -2.545058   -1.277639
     73          1           0       -5.412153   -2.323549   -0.806880
     74          1           0       -6.963408   -1.619896   -0.518772
     75          1           0       -6.415959   -0.680528    1.406432
     76          1           0       -4.357654   -2.312294    4.894387
     77          1           0       -3.202837   -2.743050    3.617470
     78          1           0       -4.765584   -3.626866    3.772966
     79          1           0       -5.276955    2.513516    2.760342
     80          1           0       -4.238890    1.627517    3.903546
     81          1           0       -5.677724    0.859171    3.244360
     82          1           0       -0.285520    4.040836   -1.933805
     83          1           0       -0.165159    5.145175   -0.578320
     84          1           0        0.762170    1.459872   -0.688015
     85          1           0        2.192907    5.539532   -0.500742
     86          1           0        4.488781    4.729962   -0.061169
     87          1           0        1.637013   -0.541220    0.501483
     88          1           0        3.634356    1.845305    2.279233
     89          1           0        5.041876    0.976297    2.788921
     90          1           0        3.576696   -0.558891    3.631432
     91          1           0        2.229115    0.145933    2.752491
     92          1           0        1.522872   -3.620697   -1.164018
     93          1           0        0.644672   -2.362935   -0.243447
     94          1           0        2.899007   -4.213759    0.771026
     95          1           0        1.236761   -4.215495    1.329099
     96          1           0        2.930962   -3.110945    2.897021
     97          1           0        1.496288   -2.178184    2.509692
     98          1           0        3.284417    0.814975   -2.504360
     99          1           0        4.437241   -0.433786   -2.099626
    100          1           0        2.527912   -1.730531   -2.849436
    101          1           0        1.373218   -0.697726   -1.921182
    102          1           0        4.971696   -2.675364    0.986181
    103          1           0        5.249151   -1.858981    2.476788
    104          1           0        6.420064   -0.220950    1.481367
    105          1           0        8.200985   -3.770207   -0.787019
    106          1           0        7.162904   -2.992401   -1.997322
    107          1           0        8.658342   -2.173494   -1.413286
    108          1           0        5.849461    1.855786   -1.766366
    109          1           0        7.100599    1.753991   -0.489685
    110          1           0        6.393736    3.299374   -0.895936
 ---------------------------------------------------------------------
 Rotational constants (GHZ):           0.0942959           0.0322120           0.0298384
 Standard basis: STO-3G (5D, 7F)
 There are   326 symmetry adapted cartesian basis functions of A   symmetry.
 There are   326 symmetry adapted basis functions of A   symmetry.
   326 basis functions,   978 primitive gaussians,   326 cartesian basis functions
   197 alpha electrons      197 beta electrons
       nuclear repulsion energy      8123.3360029102 Hartrees.
 NAtoms=  110 NActive=  110 NUniq=  110 SFac= 1.00D+00 NAtFMM=   60 NAOKFM=T Big=T
 Integral buffers will be    131072 words long.
 Raffenetti 1 integral format.
 Two-electron integral symmetry is turned on.
 One-electron integrals computed using PRISM.
 NBasis=   326 RedAO= T EigKep=  1.72D-01  NBF=   326
 NBsUse=   326 1.00D-06 EigRej= -1.00D+00 NBFU=   326
 ExpMin= 1.69D-01 ExpMax= 1.31D+02 ExpMxC= 1.31D+02 IAcc=3 IRadAn=         5 AccDes= 0.00D+00
 Harris functional with IExCor=  205 and IRadAn=       5 diagonalized for initial guess.
 HarFok:  IExCor=  205 AccDes= 0.00D+00 IRadAn=         5 IDoV= 1 UseB2=F ITyADJ=14
 ICtDFT=  3500011 ScaDFX=  1.000000  1.000000  1.000000  1.000000
 FoFCou: FMM=F IPFlag=           0 FMFlag=      100000 FMFlg1=        2001
         NFxFlg=           0 DoJE=T BraDBF=F KetDBF=T FulRan=T
         wScrn=  0.000000 ICntrl=       500 IOpCl=  0 I1Cent=   200000004 NGrid=           0
         NMat0=    1 NMatS0=      1 NMatT0=    0 NMatD0=    1 NMtDS0=    0 NMtDT0=    0
 Petite list used in FoFCou.
 Requested convergence on RMS density matrix=1.00D-08 within 128 cycles.
 Requested convergence on MAX density matrix=1.00D-06.
 Requested convergence on             energy=1.00D-06.
 No special actions if energy rises.
 Integral accuracy reduced to 1.0D-05 until final iterations.
 Initial convergence to 1.0D-05 achieved.  Increase integral accuracy.
 SCF Done:  E(RHF) =  -2300.19506655     A.U. after   15 cycles
            NFock= 15  Conv=0.99D-08     -V/T= 2.0092
 Range of M.O.s used for correlation:     1   326
 NBasis=   326 NAE=   197 NBE=   197 NFC=     0 NFV=     0
 NROrb=    326 NOA=   197 NOB=   197 NVA=   129 NVB=   129
          Differentiating once with respect to magnetic field using GIAOs.
          Electric field/nuclear overlap derivatives assumed to be zero.
 FoFCou: FMM=F IPFlag=           0 FMFlag=      100000 FMFlg1=        2001
         NFxFlg=           0 DoJE=F BraDBF=F KetDBF=T FulRan=T
         wScrn=  0.000000 ICntrl=      6100 IOpCl=  0 I1Cent=           7 NGrid=         110
         NMat0=    1 NMatS0=      1 NMatT0=    0 NMatD0=    1 NMtDS0=    0 NMtDT0=    0
 Symmetry not used in FoFCou.
 FoFJK:  IHMeth= 1 ICntrl=    6127 DoSepK=F KAlg= 0 I1Cent=           0 FoldK=F
 IRaf=         1 NMat=       1 IRICut=       1 DoRegI=T DoRafI=F ISym2E= 0 IDoP0=0 IntGTp=1.
          There are     3 degrees of freedom in the 1st order CPHF.  IDoFFX=0 NUNeed=     3.
      3 vectors produced by pass  0 Test12= 8.47D-13 3.33D-08 XBig12= 1.81D+02 1.81D+00.
 AX will form     3 AO Fock derivatives at one time.
      3 vectors produced by pass  1 Test12= 8.47D-13 3.33D-08 XBig12= 8.24D-01 2.39D-01.
      3 vectors produced by pass  2 Test12= 8.47D-13 3.33D-08 XBig12= 2.05D-02 3.52D-02.
      3 vectors produced by pass  3 Test12= 8.47D-13 3.33D-08 XBig12= 4.96D-04 8.34D-03.
      3 vectors produced by pass  4 Test12= 8.47D-13 3.33D-08 XBig12= 1.96D-05 1.10D-03.
      3 vectors produced by pass  5 Test12= 8.47D-13 3.33D-08 XBig12= 3.79D-07 1.02D-04.
      3 vectors produced by pass  6 Test12= 8.47D-13 3.33D-08 XBig12= 1.51D-08 3.25D-05.
      3 vectors produced by pass  7 Test12= 8.47D-13 3.33D-08 XBig12= 3.50D-10 3.01D-06.
      3 vectors produced by pass  8 Test12= 8.47D-13 3.33D-08 XBig12= 5.96D-12 3.48D-07.
      2 vectors produced by pass  9 Test12= 8.47D-13 3.33D-08 XBig12= 1.48D-13 7.77D-08.
 InvSVY:  IOpt=1 It=  1 EMax= 8.88D-15
 Solved reduced A of dimension    29 with     3 vectors.
 Calculating GIAO nuclear magnetic shielding tensors.
 SCF GIAO Magnetic shielding tensor (ppm):
      1  C    Isotropic =   123.6069   Anisotropy =   150.3188
   XX=   168.3702   YX=   -45.6485   ZX=    45.7786
   XY=   -39.6792   YY=   152.7977   ZY=   -50.0889
   XZ=    33.8150   YZ=   -37.8192   ZZ=    49.6527
   Eigenvalues:    29.1545   117.8466   223.8194
      2  C    Isotropic =   119.1186   Anisotropy =   162.4903
   XX=   127.4677   YX=   -83.9063   ZX=    48.5129
   XY=   -76.7343   YY=   139.9085   ZY=   -18.4667
   XZ=    44.1349   YZ=   -10.4287   ZZ=    89.9797
   Eigenvalues:    38.8696    91.0408   227.4455
      3  C    Isotropic =   118.9132   Anisotropy =   157.3095
   XX=   138.5926   YX=   -91.1801   ZX=     5.1983
   XY=   -79.5492   YY=   119.6467   ZY=   -44.1075
   XZ=    -1.8158   YZ=   -49.0463   ZZ=    98.5004
   Eigenvalues:    26.3161   106.6374   223.7862
      4  C    Isotropic =   133.5566   Anisotropy =   144.6172
   XX=   178.4118   YX=   -46.2927   ZX=    31.0938
   XY=   -51.2882   YY=   159.4429   ZY=   -29.4575
   XZ=    26.9779   YZ=   -36.7849   ZZ=    62.8149
   Eigenvalues:    50.8188   119.8829   229.9680
      5  C    Isotropic =   108.9770   Anisotropy =   128.7884
   XX=   129.8217   YX=   -56.1135   ZX=    38.9056
   XY=   -67.2425   YY=   113.0316   ZY=   -11.0727
   XZ=    45.9736   YZ=     3.6314   ZZ=    84.0777
   Eigenvalues:    41.0319    91.0631   194.8359
      6  C    Isotropic =   117.2883   Anisotropy =   142.4245
   XX=   156.9231   YX=   -66.5260   ZX=    13.1546
   XY=   -69.5616   YY=   109.5153   ZY=   -26.2907
   XZ=    14.1350   YZ=   -37.0525   ZZ=    85.4264
   Eigenvalues:    50.2965    89.3304   212.2379
      7  N    Isotropic =   274.2849   Anisotropy =    82.1691
   XX=   305.8381   YX=    28.8630   ZX=    -9.2510
   XY=    45.2610   YY=   267.2941   ZY=   -12.1910
   XZ=    -0.2884   YZ=    -1.3019   ZZ=   249.7225
   Eigenvalues:   243.0015   250.7888   329.0643
      8  C    Isotropic =   195.9029   Anisotropy =    11.5837
   XX=   190.2573   YX=    -5.2879   ZX=    -2.3656
   XY=    -3.0801   YY=   194.4775   ZY=     5.5295
   XZ=     0.2728   YZ=    -1.9589   ZZ=   202.9740
   Eigenvalues:   187.6813   196.4021   203.6254
      9  C    Isotropic =   181.1170   Anisotropy =    44.8465
   XX=   173.8986   YX=    22.7217   ZX=     0.8380
   XY=     7.4954   YY=   166.4269   ZY=    12.7048
   XZ=     7.2424   YZ=    18.0755   ZZ=   203.0255
   Eigenvalues:   152.5672   179.7691   211.0147
     10  C    Isotropic =   190.4465   Anisotropy =    29.3900
   XX=   190.8761   YX=   -12.7819   ZX=    -1.7487
   XY=    -9.1986   YY=   190.8062   ZY=    13.2199
   XZ=    -1.9446   YZ=    16.9893   ZZ=   189.6572
   Eigenvalues:   172.5944   188.7052   210.0398
     11  C    Isotropic =   213.7614   Anisotropy =    20.0273
   XX=   216.0948   YX=    -9.3157   ZX=     6.5407
   XY=    -9.7244   YY=   214.1121   ZY=     1.9957
   XZ=     6.9884   YZ=    -5.3717   ZZ=   211.0775
   Eigenvalues:   203.6320   210.5393   227.1130
     12  C    Isotropic =   212.7990   Anisotropy =    21.2162
   XX=   208.5920   YX=    -7.8948   ZX=    -1.1407
   XY=    -9.3236   YY=   218.6674   ZY=     6.5351
   XZ=    -2.1355   YZ=     8.2185   ZZ=   211.1376
   Eigenvalues:   202.7900   208.6638   226.9431
     13  C    Isotropic =   213.5565   Anisotropy =     9.1220
   XX=   212.9217   YX=     1.6866   ZX=     4.1290
   XY=    -1.7059   YY=   212.7722   ZY=    -1.6265
   XZ=     5.8115   YZ=    -3.5574   ZZ=   214.9757
   Eigenvalues:   208.2353   212.7964   219.6378
     14  N    Isotropic =   302.3706   Anisotropy =    54.0253
   XX=   275.0493   YX=   -43.7112   ZX=     2.4237
   XY=   -44.8284   YY=   305.1301   ZY=     6.6479
   XZ=    19.1978   YZ=    17.8984   ZZ=   326.9325
   Eigenvalues:   240.3953   328.3290   338.3875
     15  C    Isotropic =   205.2159   Anisotropy =    35.2539
   XX=   202.2345   YX=     5.7046   ZX=     6.7048
   XY=     6.8552   YY=   191.7190   ZY=    14.0168
   XZ=     7.3318   YZ=     9.7392   ZZ=   221.6943
   Eigenvalues:   186.6238   200.3054   228.7186
     16  C    Isotropic =   224.1923   Anisotropy =     8.6215
   XX=   227.0806   YX=    -1.0010   ZX=    -2.9918
   XY=    -1.8959   YY=   220.6725   ZY=     1.5456
   XZ=    -1.6698   YZ=     6.5707   ZZ=   224.8237
   Eigenvalues:   218.1899   224.4470   229.9399
     17  C    Isotropic =   215.3276   Anisotropy =    19.8955
   XX=   209.3769   YX=    -0.4014   ZX=     5.5361
   XY=    -0.2407   YY=   211.3411   ZY=     8.1937
   XZ=     0.9214   YZ=     5.7721   ZZ=   225.2647
   Eigenvalues:   207.1567   210.2347   228.5913
     18  C    Isotropic =   210.2136   Anisotropy =    37.3630
   XX=   211.2816   YX=   -15.9228   ZX=     4.4373
   XY=   -14.5707   YY=   222.6059   ZY=    17.4099
   XZ=     4.7942   YZ=     8.8551   ZZ=   196.7534
   Eigenvalues:   186.4084   209.1102   235.1222
     19  C    Isotropic =   199.9632   Anisotropy =    42.1454
   XX=   188.6200   YX=   -13.5101   ZX=    15.0573
   XY=   -18.4020   YY=   198.5166   ZY=    -5.3229
   XZ=    17.9310   YZ=    -9.1991   ZZ=   212.7530
   Eigenvalues:   174.3189   197.5106   228.0602
     20  C    Isotropic =   212.1269   Anisotropy =    20.9287
   XX=   205.5091   YX=     5.4005   ZX=     5.6953
   XY=     4.6813   YY=   209.0705   ZY=    -7.8964
   XZ=     3.8373   YZ=    -8.5907   ZZ=   221.8011
   Eigenvalues:   198.5594   211.7419   226.0794
     21  C    Isotropic =   209.0830   Anisotropy =     9.7206
   XX=   209.7053   YX=     3.8179   ZX=     5.6269
   XY=     1.4316   YY=   212.3616   ZY=    -9.8436
   XZ=     4.4489   YZ=    -1.6720   ZZ=   205.1820
   Eigenvalues:   198.9797   212.7059   215.5634
     22  C    Isotropic =    96.1985   Anisotropy =    98.4595
   XX=   148.0469   YX=    13.8874   ZX=   -29.2358
   XY=    11.6239   YY=   145.9143   ZY=    40.9937
   XZ=   -41.8905   YZ=    60.0905   ZZ=    -5.3659
   Eigenvalues:   -28.7525   155.5098   161.8381
     23  O    Isotropic =  -134.1858   Anisotropy =   888.8233
   XX=   257.2801   YX=   382.8084   ZX=    16.2414
   XY=   398.5084   YY=  -312.1546   ZY=  -130.6113
   XZ=    10.0383   YZ=  -113.3769   ZZ=  -347.6829
   Eigenvalues:  -570.4007  -290.5198   458.3631
     24  O    Isotropic =   283.3450   Anisotropy =   140.0408
   XX=   305.1194   YX=    80.8400   ZX=   -67.8293
   XY=   105.1812   YY=   191.8884   ZY=   132.8351
   XZ=    -4.3690   YZ=    -1.6021   ZZ=   353.0273
   Eigenvalues:   115.9605   357.3691   376.7055
     25  C    Isotropic =   197.3467   Anisotropy =    56.8031
   XX=   188.3927   YX=   -14.4907   ZX=    14.1267
   XY=   -13.9090   YY=   201.3253   ZY=   -24.6031
   XZ=    14.4301   YZ=   -24.8502   ZZ=   202.3220
   Eigenvalues:   177.0850   179.7396   235.2154
     26  C    Isotropic =   209.9068   Anisotropy =    41.9183
   XX=   204.7985   YX=    -8.7067   ZX=   -17.1804
   XY=    -7.6065   YY=   202.4245   ZY=    10.5587
   XZ=   -18.5294   YZ=     8.2558   ZZ=   222.4973
   Eigenvalues:   193.0341   198.8339   237.8523
     27  C    Isotropic =   206.5388   Anisotropy =    19.7332
   XX=   217.6068   YX=     4.8549   ZX=    -5.8954
   XY=     2.7556   YY=   204.9298   ZY=    -6.1541
   XZ=    -0.5865   YZ=    -5.4941   ZZ=   197.0799
   Eigenvalues:   193.9292   205.9930   219.6943
     28  C    Isotropic =   117.5699   Anisotropy =   161.0483
   XX=    51.7793   YX=    22.2257   ZX=   -30.7520
   XY=    15.5061   YY=    82.6592   ZY=     4.6699
   XZ=   -37.1260   YZ=     0.1205   ZZ=   218.2712
   Eigenvalues:    37.2046    90.5696   224.9354
     29  C    Isotropic =   128.2270   Anisotropy =   149.0473
   XX=    82.7026   YX=   -33.7757   ZX=   -27.3220
   XY=   -42.7197   YY=    80.7477   ZY=    -6.6007
   XZ=   -33.2812   YZ=   -13.0147   ZZ=   221.2308
   Eigenvalues:    39.0419   118.0473   227.5919
     30  C    Isotropic =   119.7453   Anisotropy =   149.5886
   XX=   111.7548   YX=    12.4655   ZX=   -18.9485
   XY=    16.1885   YY=    33.1760   ZY=     7.8280
   XZ=   -27.8707   YZ=     6.0090   ZZ=   214.3050
   Eigenvalues:    29.9821   109.7827   219.4710
     31  C    Isotropic =   127.6284   Anisotropy =   152.1163
   XX=    76.0930   YX=   -37.1307   ZX=   -28.7781
   XY=   -30.7617   YY=    85.8436   ZY=    -0.5372
   XZ=   -40.7027   YZ=    -4.4734   ZZ=   220.9485
   Eigenvalues:    42.1717   111.6742   229.0392
     32  C    Isotropic =   107.0142   Anisotropy =   125.3306
   XX=    49.0223   YX=    21.0842   ZX=   -32.5932
   XY=     6.2438   YY=    88.6493   ZY=     5.8264
   XZ=   -30.8550   YZ=    -5.6086   ZZ=   183.3710
   Eigenvalues:    38.3568    92.1178   190.5679
     33  C    Isotropic =   114.1725   Anisotropy =   144.5297
   XX=    90.7429   YX=     5.9263   ZX=   -17.8252
   XY=    12.5130   YY=    43.4970   ZY=     3.9475
   XZ=   -14.9655   YZ=    -3.0620   ZZ=   208.2775
   Eigenvalues:    41.6872    90.3046   210.5256
     34  N    Isotropic =   276.2168   Anisotropy =    76.1627
   XX=   268.9045   YX=   -31.2114   ZX=     8.0460
   XY=   -50.6218   YY=   296.6177   ZY=     2.2515
   XZ=    -8.7514   YZ=   -22.6633   ZZ=   263.1280
   Eigenvalues:   237.9700   263.6884   326.9919
     35  C    Isotropic =   200.1544   Anisotropy =    16.4470
   XX=   208.9713   YX=     1.8653   ZX=    -7.2229
   XY=     8.0847   YY=   199.2267   ZY=     0.8282
   XZ=     0.9962   YZ=     8.9980   ZZ=   192.2651
   Eigenvalues:   188.4404   200.9037   211.1190
     36  C    Isotropic =   180.0762   Anisotropy =    36.7314
   XX=   186.7216   YX=    16.5734   ZX=    -2.3239
   XY=    11.3937   YY=   190.7371   ZY=    -6.9877
   XZ=     8.0068   YZ=   -19.2413   ZZ=   162.7700
   Eigenvalues:   155.4013   180.2635   204.5638
     37  C    Isotropic =   183.3360   Anisotropy =    41.1574
   XX=   162.7885   YX=    10.2598   ZX=    -4.5488
   XY=     8.4412   YY=   190.0517   ZY=    18.5716
   XZ=     2.7443   YZ=    13.8331   ZZ=   197.1677
   Eigenvalues:   158.8732   180.3605   210.7743
     38  C    Isotropic =   206.7820   Anisotropy =    31.8213
   XX=   195.5153   YX=    -1.1678   ZX=   -11.4821
   XY=     2.8598   YY=   199.6461   ZY=     1.0367
   XZ=    -7.6225   YZ=    -0.0302   ZZ=   225.1847
   Eigenvalues:   192.5772   199.7727   227.9962
     39  C    Isotropic =   213.2733   Anisotropy =    18.5921
   XX=   208.8837   YX=     4.2900   ZX=    -1.7002
   XY=    -0.8109   YY=   220.1512   ZY=     9.3717
   XZ=    -0.5945   YZ=     8.6432   ZZ=   210.7851
   Eigenvalues:   204.4997   209.6521   225.6681
     40  C    Isotropic =   211.9673   Anisotropy =    10.5294
   XX=   210.7349   YX=     0.8029   ZX=    -2.9592
   XY=     1.8463   YY=   215.0735   ZY=    -5.6332
   XZ=    -1.8523   YZ=    -4.6065   ZZ=   210.0934
   Eigenvalues:   206.4231   210.4919   218.9869
     41  N    Isotropic =   235.6312   Anisotropy =    25.7863
   XX=   243.6487   YX=   -24.9159   ZX=     9.0542
   XY=     0.1894   YY=   235.5798   ZY=     8.9552
   XZ=    10.4599   YZ=    11.4893   ZZ=   227.6651
   Eigenvalues:   213.0797   240.9918   252.8221
     42  C    Isotropic =   193.9676   Anisotropy =    49.4637
   XX=   202.9417   YX=    20.8745   ZX=    -5.2461
   XY=    26.1841   YY=   197.8329   ZY=   -10.9378
   XZ=    -7.2675   YZ=    -9.4790   ZZ=   181.1282
   Eigenvalues:   174.0743   180.8851   226.9434
     43  C    Isotropic =   219.6474   Anisotropy =     9.6552
   XX=   211.2630   YX=     4.8641   ZX=     3.6064
   XY=     2.7719   YY=   223.2700   ZY=    -0.9704
   XZ=     5.3334   YZ=    -2.8797   ZZ=   224.4092
   Eigenvalues:   208.6678   224.1902   226.0842
     44  C    Isotropic =   214.9647   Anisotropy =    21.5306
   XX=   212.0430   YX=     8.8328   ZX=    -2.5111
   XY=    11.6498   YY=   222.3270   ZY=    -1.4680
   XZ=    -4.9193   YZ=    -2.2652   ZZ=   210.5240
   Eigenvalues:   204.8081   210.7675   229.3184
     45  C    Isotropic =   207.4965   Anisotropy =    34.1802
   XX=   187.7649   YX=    15.6758   ZX=    -0.3154
   XY=    10.8236   YY=   210.1102   ZY=     7.9987
   XZ=     4.9638   YZ=     9.4116   ZZ=   224.6144
   Eigenvalues:   181.5462   210.6600   230.2833
     46  C    Isotropic =   190.8956   Anisotropy =    51.1934
   XX=   167.8859   YX=     9.4294   ZX=    11.5806
   XY=    -1.1694   YY=   194.9974   ZY=   -22.9580
   XZ=     9.4954   YZ=   -18.3006   ZZ=   209.8035
   Eigenvalues:   162.3431   185.3192   225.0246
     47  C    Isotropic =   210.9723   Anisotropy =    26.3696
   XX=   224.2563   YX=     0.0605   ZX=   -10.6464
   XY=    -0.3708   YY=   206.3815   ZY=    -7.2449
   XZ=    -9.7041   YZ=    -7.3641   ZZ=   202.2792
   Eigenvalues:   194.3285   210.0365   228.5521
     48  C    Isotropic =   205.7365   Anisotropy =    15.7959
   XX=   208.3551   YX=    -6.1349   ZX=    -2.2312
   XY=    -7.3634   YY=   206.8354   ZY=     2.5414
   XZ=    -6.2164   YZ=     3.5296   ZZ=   202.0190
   Eigenvalues:   199.8569   201.0856   216.2672
     49  C    Isotropic =    97.0515   Anisotropy =    96.0887
   XX=    92.2052   YX=    79.5798   ZX=    36.4091
   XY=    87.5887   YY=    58.6438   ZY=   -48.8985
   XZ=    22.2459   YZ=   -28.2388   ZZ=   140.3055
   Eigenvalues:   -24.0907   154.1346   161.1106
     50  O    Isotropic =  -118.5373   Anisotropy =   854.5178
   XX=   162.4409   YX=   269.8327   ZX=   227.4310
   XY=   273.9121   YY=  -156.9061   ZY=   250.5017
   XZ=   227.9842   YZ=   264.4928   ZZ=  -361.1467
   Eigenvalues:  -538.6912  -268.0619   451.1413
     51  O    Isotropic =   286.5853   Anisotropy =   143.3566
   XX=   311.7082   YX=    28.8717   ZX=    74.6151
   XY=   -26.4303   YY=   366.9421   ZY=    28.9711
   XZ=   126.2434   YZ=   -91.7608   ZZ=   181.1058
   Eigenvalues:   123.3444   354.2552   382.1564
     52  C    Isotropic =   197.5837   Anisotropy =    56.9306
   XX=   197.4889   YX=   -15.3810   ZX=   -20.8835
   XY=   -14.9161   YY=   190.0701   ZY=    19.1287
   XZ=   -21.1903   YZ=    18.4527   ZZ=   205.1922
   Eigenvalues:   177.2160   179.9977   235.5374
     53  C    Isotropic =   207.5888   Anisotropy =    42.7723
   XX=   218.0143   YX=     5.2540   ZX=   -19.5517
   XY=     4.1198   YY=   197.1121   ZY=    -2.3815
   XZ=   -24.5043   YZ=    -1.9434   ZZ=   207.6399
   Eigenvalues:   189.9727   196.6900   236.1037
     54  O    Isotropic =    76.7461   Anisotropy =   404.5961
   XX=   217.4432   YX=  -187.3108   ZX=   -82.5520
   XY=  -165.5178   YY=    43.2129   ZY=    47.9851
   XZ=   -62.7245   YZ=    42.2256   ZZ=   -30.4178
   Eigenvalues:   -66.4233   -49.8153   346.4768
     55  H    Isotropic =    25.5302   Anisotropy =    13.0808
   XX=    28.3392   YX=     6.7545   ZX=    -0.2582
   XY=     6.5245   YY=    26.7802   ZY=    -0.8994
   XZ=     0.4004   YZ=    -0.0926   ZZ=    21.4713
   Eigenvalues:    20.6583    21.6816    34.2508
     56  H    Isotropic =    26.0240   Anisotropy =     6.9447
   XX=    25.6464   YX=     1.7424   ZX=    -3.3963
   XY=     2.1302   YY=    25.1155   ZY=     1.5948
   XZ=    -4.7587   YZ=     2.2290   ZZ=    27.3101
   Eigenvalues:    20.6652    26.7530    30.6538
     57  H    Isotropic =    26.6346   Anisotropy =     7.6186
   XX=    26.6791   YX=     4.9281   ZX=    -0.7488
   XY=     4.9944   YY=    26.3863   ZY=     2.8518
   XZ=    -1.7634   YZ=     2.4518   ZZ=    26.8384
   Eigenvalues:    20.3629    27.8273    31.7136
     58  H    Isotropic =    31.4401   Anisotropy =     8.7434
   XX=    28.8786   YX=     2.1443   ZX=     0.3577
   XY=     1.8305   YY=    34.6351   ZY=    -4.9203
   XZ=    -0.6071   YZ=    -2.4974   ZZ=    30.8065
   Eigenvalues:    27.6180    29.4332    37.2690
     59  H    Isotropic =    32.1412   Anisotropy =    13.7911
   XX=    35.8701   YX=    -4.1258   ZX=    -4.1283
   XY=    -5.6151   YY=    27.0438   ZY=     4.0623
   XZ=    -3.1237   YZ=     4.1627   ZZ=    33.5096
   Eigenvalues:    24.1880    30.9003    41.3352
     60  H    Isotropic =    32.8462   Anisotropy =     9.1203
   XX=    31.8475   YX=     2.2115   ZX=     2.1915
   XY=    -1.5679   YY=    38.9116   ZY=    -0.2807
   XZ=     2.7496   YZ=    -0.0245   ZZ=    27.7794
   Eigenvalues:    26.6071    33.0050    38.9264
     61  H    Isotropic =    32.3183   Anisotropy =    15.4582
   XX=    42.4121   YX=    -1.6782   ZX=     0.5230
   XY=    -1.9499   YY=    26.7097   ZY=     1.4340
   XZ=     0.3346   YZ=     1.4158   ZZ=    27.8331
   Eigenvalues:    25.5585    28.7727    42.6237
     62  H    Isotropic =    32.5357   Anisotropy =    13.9286
   XX=    28.6918   YX=    -3.2138   ZX=     3.3654
   XY=    -4.3865   YY=    35.7351   ZY=    -5.6076
   XZ=     3.3116   YZ=    -4.9268   ZZ=    33.1803
   Eigenvalues:    26.7203    29.0655    41.8215
     63  H    Isotropic =    31.7881   Anisotropy =    14.4817
   XX=    27.8187   YX=     1.9592   ZX=    -1.1940
   XY=     2.1048   YY=    28.1166   ZY=    -4.3061
   XZ=    -1.8514   YZ=    -5.0388   ZZ=    39.4291
   Eigenvalues:    25.4834    28.4384    41.4426
     64  H    Isotropic =    31.8112   Anisotropy =    14.5169
   XX=    32.4603   YX=    -4.5425   ZX=    -2.7498
   XY=    -5.1517   YY=    30.2100   ZY=     6.8375
   XZ=    -3.0495   YZ=     6.4972   ZZ=    32.7632
   Eigenvalues:    24.1342    29.8102    41.4891
     65  H    Isotropic =    32.6148   Anisotropy =    18.1370
   XX=    29.7862   YX=     1.8461   ZX=     4.7794
   XY=     1.7223   YY=    28.2981   ZY=     6.4700
   XZ=     5.0611   YZ=     7.0262   ZZ=    39.7599
   Eigenvalues:    25.1122    28.0259    44.7061
     66  H    Isotropic =    32.5362   Anisotropy =    10.2698
   XX=    28.0132   YX=     2.0504   ZX=     0.4948
   XY=     2.0037   YY=    38.9364   ZY=    -0.7912
   XZ=     0.3782   YZ=    -1.0842   ZZ=    30.6591
   Eigenvalues:    27.5335    30.6924    39.3827
     67  H    Isotropic =    32.6181   Anisotropy =    13.6341
   XX=    28.7738   YX=    -3.1770   ZX=     4.1230
   XY=    -3.4771   YY=    32.2779   ZY=    -4.5347
   XZ=     4.1519   YZ=    -4.4191   ZZ=    36.8026
   Eigenvalues:    26.5017    29.6451    41.7075
     68  H    Isotropic =    32.4606   Anisotropy =    15.0119
   XX=    40.6161   YX=     3.5472   ZX=     3.0866
   XY=     3.8475   YY=    27.0588   ZY=     2.5919
   XZ=     2.6133   YZ=     2.4346   ZZ=    29.7067
   Eigenvalues:    25.3055    29.6077    42.4685
     69  H    Isotropic =    32.5415   Anisotropy =    17.2645
   XX=    43.9434   YX=    -0.8231   ZX=     0.3310
   XY=     1.7948   YY=    30.3385   ZY=     3.2827
   XZ=     2.2193   YZ=     1.2938   ZZ=    23.3425
   Eigenvalues:    22.6054    30.9680    44.0512
     70  H    Isotropic =    32.9405   Anisotropy =     8.7802
   XX=    33.0052   YX=    -2.8680   ZX=    -0.9491
   XY=    -1.6221   YY=    31.1158   ZY=    -5.2318
   XZ=     0.3158   YZ=    -5.5491   ZZ=    34.7007
   Eigenvalues:    26.5910    33.4366    38.7940
     71  H    Isotropic =    31.9511   Anisotropy =    16.4517
   XX=    38.7497   YX=    -6.9002   ZX=    -1.4777
   XY=    -7.2565   YY=    29.9277   ZY=     3.5679
   XZ=     0.6182   YZ=     2.7917   ZZ=    27.1758
   Eigenvalues:    23.8712    29.0631    42.9189
     72  H    Isotropic =    31.8574   Anisotropy =     8.0453
   XX=    30.6897   YX=     0.9709   ZX=    -0.4426
   XY=     1.8400   YY=    36.7350   ZY=    -1.0545
   XZ=     0.4037   YZ=    -1.5179   ZZ=    28.1474
   Eigenvalues:    27.9455    30.4057    37.2209
     73  H    Isotropic =    31.4130   Anisotropy =     8.9863
   XX=    27.4447   YX=    -1.6467   ZX=    -0.3766
   XY=    -1.2351   YY=    36.9546   ZY=     1.9126
   XZ=    -1.0515   YZ=     0.5711   ZZ=    29.8397
   Eigenvalues:    27.1230    29.7121    37.4039
     74  H    Isotropic =    32.1896   Anisotropy =    15.0254
   XX=    39.1020   YX=     6.4922   ZX=     0.2541
   XY=     6.7834   YY=    28.0029   ZY=     0.1149
   XZ=    -0.4757   YZ=    -0.3875   ZZ=    29.4638
   Eigenvalues:    24.8992    29.4631    42.2065
     75  H    Isotropic =    31.1390   Anisotropy =    12.6133
   XX=    34.8789   YX=    -0.1753   ZX=    -5.9714
   XY=     1.1726   YY=    25.6069   ZY=    -0.2403
   XZ=    -5.0842   YZ=    -0.5810   ZZ=    32.9312
   Eigenvalues:    25.5769    28.2921    39.5479
     76  H    Isotropic =    30.5383   Anisotropy =    11.8164
   XX=    25.8335   YX=    -0.2582   ZX=     0.1044
   XY=    -0.1092   YY=    27.3909   ZY=    -0.8049
   XZ=    -0.5495   YZ=    -0.1725   ZZ=    38.3906
   Eigenvalues:    25.8059    27.3931    38.4159
     77  H    Isotropic =    30.6747   Anisotropy =     8.2651
   XX=    35.4709   YX=    -2.2877   ZX=     0.9084
   XY=    -2.0383   YY=    27.6253   ZY=    -2.7198
   XZ=    -0.2492   YZ=    -2.8333   ZZ=    28.9280
   Eigenvalues:    25.1990    30.6405    36.1848
     78  H    Isotropic =    30.5675   Anisotropy =    11.5290
   XX=    27.2021   YX=     3.0523   ZX=    -0.8742
   XY=     3.5431   YY=    35.7651   ZY=    -3.8744
   XZ=    -0.5558   YZ=    -3.2484   ZZ=    28.7352
   Eigenvalues:    25.9415    27.5075    38.2535
     79  H    Isotropic =    31.8987   Anisotropy =    12.3068
   XX=    30.3820   YX=    -4.2293   ZX=    -2.7506
   XY=    -5.6556   YY=    35.2351   ZY=     4.0591
   XZ=    -1.5745   YZ=     3.2239   ZZ=    30.0790
   Eigenvalues:    27.2955    28.2973    40.1032
     80  H    Isotropic =    30.7574   Anisotropy =    13.8207
   XX=    27.3132   YX=     2.1425   ZX=     1.8642
   XY=     1.5567   YY=    26.1188   ZY=     3.3140
   XZ=     2.0784   YZ=     2.8005   ZZ=    38.8402
   Eigenvalues:    24.6210    27.6800    39.9712
     81  H    Isotropic =    30.8989   Anisotropy =    10.8136
   XX=    31.1509   YX=     4.0179   ZX=    -5.8894
   XY=     2.9519   YY=    29.1564   ZY=     0.8844
   XZ=    -5.7396   YZ=    -0.0351   ZZ=    32.3893
   Eigenvalues:    24.1613    30.4274    38.1079
     82  H    Isotropic =    30.1654   Anisotropy =     8.6304
   XX=    28.1144   YX=     1.6770   ZX=     1.5526
   XY=     2.4197   YY=    27.8562   ZY=    -2.2966
   XZ=     4.1652   YZ=    -2.4319   ZZ=    34.5256
   Eigenvalues:    24.5672    30.0100    35.9190
     83  H    Isotropic =    29.7922   Anisotropy =    12.6608
   XX=    28.0509   YX=    -0.0054   ZX=    -0.5970
   XY=     2.1675   YY=    38.0537   ZY=     0.9998
   XZ=    -2.0858   YZ=     1.2341   ZZ=    23.2720
   Eigenvalues:    22.8002    28.3437    38.2327
     84  H    Isotropic =    27.1054   Anisotropy =    16.8235
   XX=    35.1267   YX=    -4.7289   ZX=    -0.8177
   XY=    -6.3435   YY=    28.6790   ZY=     1.0714
   XZ=     1.9576   YZ=    -1.0766   ZZ=    17.5106
   Eigenvalues:    17.4889    25.5063    38.3211
     85  H    Isotropic =    25.6445   Anisotropy =     6.6964
   XX=    29.2175   YX=     1.6929   ZX=     0.7976
   XY=     1.2824   YY=    27.4063   ZY=    -0.0417
   XZ=     0.9343   YZ=    -0.0466   ZZ=    20.3096
   Eigenvalues:    20.2212    26.6035    30.1087
     86  H    Isotropic =    25.9326   Anisotropy =     7.8944
   XX=    26.9653   YX=    -0.8699   ZX=     0.2406
   XY=    -0.3573   YY=    31.0980   ZY=     0.0588
   XZ=     0.0353   YZ=    -0.6429   ZZ=    19.7344
   Eigenvalues:    19.7248    26.8773    31.1955
     87  H    Isotropic =    32.2767   Anisotropy =    11.5008
   XX=    39.3118   YX=    -1.7802   ZX=    -0.2027
   XY=    -2.8772   YY=    31.3591   ZY=     0.3380
   XZ=    -0.0411   YZ=    -1.8375   ZZ=    26.1592
   Eigenvalues:    26.0370    30.8491    39.9439
     88  H    Isotropic =    32.8689   Anisotropy =     8.7730
   XX=    27.8589   YX=    -2.8719   ZX=    -3.0203
   XY=    -3.1314   YY=    36.9997   ZY=     2.9508
   XZ=     0.8037   YZ=     0.5901   ZZ=    33.7481
   Eigenvalues:    26.9138    32.9754    38.7176
     89  H    Isotropic =    31.6571   Anisotropy =    14.6246
   XX=    31.7236   YX=     3.6392   ZX=     5.3433
   XY=     2.9481   YY=    27.5808   ZY=     2.8421
   XZ=     7.2493   YZ=     2.0205   ZZ=    35.6669
   Eigenvalues:    25.5740    27.9905    41.4068
     90  H    Isotropic =    32.3944   Anisotropy =    15.3486
   XX=    27.2860   YX=     0.8469   ZX=     1.7965
   XY=     0.7745   YY=    27.8294   ZY=    -1.8456
   XZ=     2.3599   YZ=    -2.4204   ZZ=    42.0678
   Eigenvalues:    26.1580    28.3984    42.6268
     91  H    Isotropic =    33.3705   Anisotropy =    12.5843
   XX=    38.3456   YX=    -3.3640   ZX=    -4.5995
   XY=    -4.1107   YY=    30.4051   ZY=     2.5017
   XZ=    -3.8982   YZ=     0.3848   ZZ=    31.3609
   Eigenvalues:    28.8487    29.5028    41.7600
     92  H    Isotropic =    31.0268   Anisotropy =    12.6855
   XX=    28.1854   YX=     4.0947   ZX=     2.5692
   XY=     2.8222   YY=    33.9328   ZY=     5.4901
   XZ=     2.6636   YZ=     4.8347   ZZ=    30.9621
   Eigenvalues:    26.5207    27.0758    39.4838
     93  H    Isotropic =    32.3162   Anisotropy =    16.2596
   XX=    42.8458   YX=    -1.9829   ZX=     1.3325
   XY=    -0.8890   YY=    28.9924   ZY=    -1.3250
   XZ=     1.8310   YZ=    -1.3475   ZZ=    25.1103
   Eigenvalues:    24.6277    29.1649    43.1559
     94  H    Isotropic =    31.2669   Anisotropy =    13.6183
   XX=    31.0579   YX=    -5.3186   ZX=    -0.4435
   XY=    -5.6932   YY=    37.0685   ZY=     0.3955
   XZ=     0.1418   YZ=     0.3136   ZZ=    25.6745
   Eigenvalues:    25.6633    27.7917    40.3458
     95  H    Isotropic =    32.4795   Anisotropy =    16.1337
   XX=    33.2315   YX=     7.5709   ZX=    -2.2503
   XY=     7.0644   YY=    35.7924   ZY=    -4.0073
   XZ=    -1.6184   YZ=    -4.1530   ZZ=    28.4148
   Eigenvalues:    26.0045    28.1988    43.2353
     96  H    Isotropic =    32.2616   Anisotropy =    14.9862
   XX=    28.4492   YX=     0.0435   ZX=     3.2816
   XY=    -0.1157   YY=    32.4203   ZY=    -7.2861
   XZ=     3.6317   YZ=    -7.3650   ZZ=    35.9153
   Eigenvalues:    25.0970    29.4353    42.2524
     97  H    Isotropic =    32.9571   Anisotropy =    12.4647
   XX=    37.5867   YX=     0.1918   ZX=    -6.1940
   XY=     0.1389   YY=    29.6972   ZY=     0.9751
   XZ=    -5.7364   YZ=     0.2570   ZZ=    31.5873
   Eigenvalues:    27.7208    29.8836    41.2669
     98  H    Isotropic =    32.8882   Anisotropy =     9.5773
   XX=    28.0708   YX=    -0.5376   ZX=    -0.2267
   XY=     0.6747   YY=    33.5964   ZY=    -5.0186
   XZ=    -0.2808   YZ=    -2.1573   ZZ=    36.9974
   Eigenvalues:    28.0633    31.3283    39.2731
     99  H    Isotropic =    31.2625   Anisotropy =    12.6579
   XX=    37.2860   YX=    -2.5987   ZX=    -4.3049
   XY=    -0.5664   YY=    26.0537   ZY=     2.1656
   XZ=    -4.0923   YZ=     2.2603   ZZ=    30.4479
   Eigenvalues:    25.1298    28.9567    39.7011
    100  H    Isotropic =    31.0465   Anisotropy =    13.5978
   XX=    27.1140   YX=     0.7155   ZX=     1.3707
   XY=     1.0726   YY=    28.4896   ZY=     4.3419
   XZ=     0.4681   YZ=     6.3068   ZZ=    37.5359
   Eigenvalues:    25.8681    27.1597    40.1117
    101  H    Isotropic =    31.7222   Anisotropy =    13.6665
   XX=    38.7247   YX=    -2.3516   ZX=     3.3622
   XY=    -3.0476   YY=    28.6243   ZY=    -1.0676
   XZ=     5.1433   YZ=    -0.5071   ZZ=    27.8177
   Eigenvalues:    26.3451    27.9883    40.8332
    102  H    Isotropic =    30.2755   Anisotropy =    10.9052
   XX=    32.2239   YX=    -3.0759   ZX=    -2.4059
   XY=    -3.7777   YY=    34.7262   ZY=     1.2404
   XZ=    -0.8029   YZ=     2.3785   ZZ=    23.8764
   Eigenvalues:    23.4425    29.8385    37.5456
    103  H    Isotropic =    31.7056   Anisotropy =    14.6371
   XX=    32.4195   YX=    -2.4140   ZX=     4.7292
   XY=    -2.7640   YY=    27.8266   ZY=    -5.1358
   XZ=     5.6987   YZ=    -5.4817   ZZ=    34.8708
   Eigenvalues:    24.9708    28.6825    41.4637
    104  H    Isotropic =    31.1474   Anisotropy =    13.8174
   XX=    36.8230   YX=     1.2886   ZX=     6.7172
   XY=     0.1941   YY=    27.2384   ZY=     1.6459
   XZ=     5.4796   YZ=     0.6836   ZZ=    29.3807
   Eigenvalues:    25.6677    27.4154    40.3590
    105  H    Isotropic =    30.6895   Anisotropy =    12.7056
   XX=    30.6358   YX=    -5.9532   ZX=    -0.1300
   XY=    -5.8838   YY=    35.0288   ZY=    -1.2276
   XZ=    -0.6234   YZ=    -0.3464   ZZ=    26.4039
   Eigenvalues:    25.6933    27.2153    39.1598
    106  H    Isotropic =    30.6178   Anisotropy =     7.2094
   XX=    30.6804   YX=    -0.7808   ZX=     1.4051
   XY=    -1.7506   YY=    28.2333   ZY=     3.7076
   XZ=     1.0993   YZ=     4.6445   ZZ=    32.9396
   Eigenvalues:    25.2440    31.1853    35.4240
    107  H    Isotropic =    30.6682   Anisotropy =    11.4617
   XX=    36.4902   YX=     0.8297   ZX=    -3.9899
   XY=     1.2669   YY=    28.2914   ZY=    -0.5754
   XZ=    -4.6005   YZ=    -0.4394   ZZ=    27.2230
   Eigenvalues:    25.5354    28.1599    38.3093
    108  H    Isotropic =    31.6032   Anisotropy =     9.5961
   XX=    30.2098   YX=     2.5796   ZX=    -3.0032
   XY=     2.2279   YY=    28.4993   ZY=     0.7319
   XZ=    -4.6879   YZ=     1.9031   ZZ=    36.1005
   Eigenvalues:    25.6645    31.1446    38.0006
    109  H    Isotropic =    31.7794   Anisotropy =    12.3183
   XX=    39.8873   YX=     0.7629   ZX=    -0.1250
   XY=    -1.7531   YY=    30.4765   ZY=    -1.9719
   XZ=    -2.1966   YZ=    -1.3022   ZZ=    24.9743
   Eigenvalues:    24.4229    30.9236    39.9916
    110  H    Isotropic =    31.1699   Anisotropy =    15.0880
   XX=    31.7005   YX=     5.4382   ZX=    -2.2881
   XY=     4.5659   YY=    37.1382   ZY=    -2.4655
   XZ=    -4.7361   YZ=    -3.3024   ZZ=    24.6712
   Eigenvalues:    23.1644    29.1169    41.2286
 End of Minotr F.D. properties file   721 does not exist.
 End of Minotr F.D. properties file   722 does not exist.
 End of Minotr F.D. properties file   788 does not exist.
 Hyperfine terms turned off by default for NAtoms > 100.

 **********************************************************************

            Population analysis using the SCF Density.

 **********************************************************************

 Orbital symmetries:
       Occupied  (A) (A) (A) (A) (A) (A) (A) (A) (A) (A) (A) (A)
                 (A) (A) (A) (A) (A) (A) (A) (A) (A) (A) (A) (A)
                 (A) (A) (A) (A) (A) (A) (A) (A) (A) (A) (A) (A)
                 (A) (A) (A) (A) (A) (A) (A) (A) (A) (A) (A) (A)
                 (A) (A) (A) (A) (A) (A) (A) (A) (A) (A) (A) (A)
                 (A) (A) (A) (A) (A) (A) (A) (A) (A) (A) (A) (A)
                 (A) (A) (A) (A) (A) (A) (A) (A) (A) (A) (A) (A)
                 (A) (A) (A) (A) (A) (A) (A) (A) (A) (A) (A) (A)
                 (A) (A) (A) (A) (A) (A) (A) (A) (A) (A) (A) (A)
                 (A) (A) (A) (A) (A) (A) (A) (A) (A) (A) (A) (A)
                 (A) (A) (A) (A) (A) (A) (A) (A) (A) (A) (A) (A)
                 (A) (A) (A) (A) (A) (A) (A) (A) (A) (A) (A) (A)
                 (A) (A) (A) (A) (A) (A) (A) (A) (A) (A) (A) (A)
                 (A) (A) (A) (A) (A) (A) (A) (A) (A) (A) (A) (A)
                 (A) (A) (A) (A) (A) (A) (A) (A) (A) (A) (A) (A)
                 (A) (A) (A) (A) (A) (A) (A) (A) (A) (A) (A) (A)
                 (A) (A) (A) (A) (A)
       Virtual   (A) (A) (A) (A) (A) (A) (A) (A) (A) (A) (A) (A)
                 (A) (A) (A) (A) (A) (A) (A) (A) (A) (A) (A) (A)
                 (A) (A) (A) (A) (A) (A) (A) (A) (A) (A) (A) (A)
                 (A) (A) (A) (A) (A) (A) (A) (A) (A) (A) (A) (A)
                 (A) (A) (A) (A) (A) (A) (A) (A) (A) (A) (A) (A)
                 (A) (A) (A) (A) (A) (A) (A) (A) (A) (A) (A) (A)
                 (A) (A) (A) (A) (A) (A) (A) (A) (A) (A) (A) (A)
                 (A) (A) (A) (A) (A) (A) (A) (A) (A) (A) (A) (A)
                 (A) (A) (A) (A) (A) (A) (A) (A) (A) (A) (A) (A)
                 (A) (A) (A) (A) (A) (A) (A) (A) (A) (A) (A) (A)
                 (A) (A) (A) (A) (A) (A) (A) (A) (A)
 The electronic state is 1-A.
 Alpha  occ. eigenvalues --  -20.31000 -20.28644 -20.24989 -20.22695 -19.92139
 Alpha  occ. eigenvalues --  -15.48138 -15.33927 -15.32341 -15.31040 -11.16906
 Alpha  occ. eigenvalues --  -11.15057 -11.10910 -11.09814 -11.09553 -11.09128
 Alpha  occ. eigenvalues --  -11.08877 -11.08608 -11.08548 -11.08251 -11.07495
 Alpha  occ. eigenvalues --  -11.07189 -11.06764 -11.06740 -11.06223 -11.06172
 Alpha  occ. eigenvalues --  -11.06079 -11.05974 -11.05959 -11.05717 -11.05690
 Alpha  occ. eigenvalues --  -11.05059 -11.04804 -11.04766 -11.04735 -11.04631
 Alpha  occ. eigenvalues --  -11.04567 -11.04496 -11.04411 -11.04302 -11.04264
 Alpha  occ. eigenvalues --  -11.04244 -11.03554 -11.03072 -11.02960 -11.02888
 Alpha  occ. eigenvalues --  -11.02376 -11.02160 -11.02125 -11.02102 -11.02046
 Alpha  occ. eigenvalues --  -11.01928 -11.01872 -11.01854 -11.01749  -1.38225
 Alpha  occ. eigenvalues --   -1.35988  -1.29484  -1.28047  -1.25871  -1.21853
 Alpha  occ. eigenvalues --   -1.20007  -1.19294  -1.10207  -1.10045  -1.09048
 Alpha  occ. eigenvalues --   -1.07639  -1.05804  -1.05257  -1.02696  -1.01122
 Alpha  occ. eigenvalues --   -0.99323  -0.98643  -0.98418  -0.97550  -0.97184
 Alpha  occ. eigenvalues --   -0.96214  -0.95041  -0.94975  -0.94077  -0.92545
 Alpha  occ. eigenvalues --   -0.91998  -0.91733  -0.89378  -0.89166  -0.87802
 Alpha  occ. eigenvalues --   -0.86545  -0.84655  -0.82744  -0.82287  -0.80661
 Alpha  occ. eigenvalues --   -0.80338  -0.79987  -0.78141  -0.78101  -0.77698
 Alpha  occ. eigenvalues --   -0.77056  -0.74489  -0.74202  -0.72948  -0.72348
 Alpha  occ. eigenvalues --   -0.71612  -0.70308  -0.69787  -0.68176  -0.66336
 Alpha  occ. eigenvalues --   -0.65324  -0.64950  -0.64479  -0.63707  -0.62947
 Alpha  occ. eigenvalues --   -0.62542  -0.62152  -0.61610  -0.61258  -0.61103
 Alpha  occ. eigenvalues --   -0.60928  -0.60174  -0.59027  -0.58901  -0.58558
 Alpha  occ. eigenvalues --   -0.58417  -0.58202  -0.57741  -0.57619  -0.57358
 Alpha  occ. eigenvalues --   -0.57128  -0.56764  -0.56089  -0.55671  -0.55470
 Alpha  occ. eigenvalues --   -0.55245  -0.55101  -0.54732  -0.54419  -0.54335
 Alpha  occ. eigenvalues --   -0.54115  -0.53444  -0.53198  -0.52363  -0.52155
 Alpha  occ. eigenvalues --   -0.51715  -0.51426  -0.51209  -0.50768  -0.50181
 Alpha  occ. eigenvalues --   -0.50056  -0.49949  -0.49367  -0.49008  -0.48617
 Alpha  occ. eigenvalues --   -0.48419  -0.48353  -0.47740  -0.47731  -0.46794
 Alpha  occ. eigenvalues --   -0.46505  -0.46264  -0.46019  -0.45706  -0.45229
 Alpha  occ. eigenvalues --   -0.45116  -0.44802  -0.44712  -0.44130  -0.43900
 Alpha  occ. eigenvalues --   -0.43836  -0.43312  -0.43010  -0.42749  -0.42570
 Alpha  occ. eigenvalues --   -0.41960  -0.41783  -0.41411  -0.41312  -0.40956
 Alpha  occ. eigenvalues --   -0.40233  -0.39862  -0.38876  -0.38545  -0.37859
 Alpha  occ. eigenvalues --   -0.37751  -0.37130  -0.36789  -0.35619  -0.34565
 Alpha  occ. eigenvalues --   -0.33691  -0.32519  -0.31632  -0.31285  -0.30753
 Alpha  occ. eigenvalues --   -0.27595  -0.27038  -0.26622  -0.22326  -0.21115
 Alpha  occ. eigenvalues --   -0.16098  -0.15607
 Alpha virt. eigenvalues --    0.26620   0.26750   0.27245   0.28247   0.30040
 Alpha virt. eigenvalues --    0.32618   0.45746   0.47803   0.48189   0.48537
 Alpha virt. eigenvalues --    0.49574   0.49837   0.50184   0.51196   0.51922
 Alpha virt. eigenvalues --    0.53682   0.54483   0.54837   0.55183   0.55777
 Alpha virt. eigenvalues --    0.56677   0.57215   0.57527   0.58542   0.58835
 Alpha virt. eigenvalues --    0.58999   0.59435   0.60075   0.60322   0.60835
 Alpha virt. eigenvalues --    0.61213   0.61677   0.62428   0.62787   0.62809
 Alpha virt. eigenvalues --    0.63405   0.63683   0.63834   0.64279   0.64489
 Alpha virt. eigenvalues --    0.64820   0.64935   0.65106   0.65351   0.66181
 Alpha virt. eigenvalues --    0.66490   0.66536   0.66632   0.67009   0.67243
 Alpha virt. eigenvalues --    0.67418   0.67661   0.67902   0.68276   0.68456
 Alpha virt. eigenvalues --    0.68821   0.69156   0.69226   0.69438   0.70030
 Alpha virt. eigenvalues --    0.70235   0.70510   0.70765   0.71074   0.71161
 Alpha virt. eigenvalues --    0.71270   0.71402   0.72097   0.72226   0.72273
 Alpha virt. eigenvalues --    0.72616   0.73107   0.73334   0.73393   0.73707
 Alpha virt. eigenvalues --    0.73995   0.74018   0.74172   0.74584   0.74695
 Alpha virt. eigenvalues --    0.75171   0.75496   0.75545   0.75941   0.76226
 Alpha virt. eigenvalues --    0.76406   0.76812   0.76996   0.77256   0.77479
 Alpha virt. eigenvalues --    0.77674   0.77935   0.78578   0.78756   0.78998
 Alpha virt. eigenvalues --    0.79297   0.79631   0.79962   0.80192   0.80702
 Alpha virt. eigenvalues --    0.80868   0.81028   0.81451   0.81622   0.82042
 Alpha virt. eigenvalues --    0.82210   0.83624   0.84053   0.84252   0.84474
 Alpha virt. eigenvalues --    0.85743   0.85964   0.86147   0.86902   0.87199
 Alpha virt. eigenvalues --    0.88488   0.88893   0.90628   0.91502   0.92976
 Alpha virt. eigenvalues --    0.93728   0.95346   0.97246   1.01074   1.03366
 Alpha virt. eigenvalues --    1.10534   1.11067   1.15287   1.15754
          Condensed to atoms (all electrons):
 Mulliken charges:
               1
     1  C   -0.076242
     2  C   -0.000042
     3  C   -0.061803
     4  C   -0.089357
     5  C    0.088735
     6  C   -0.014338
     7  N   -0.286989
     8  C    0.018178
     9  C    0.127977
    10  C    0.040160
    11  C   -0.114925
    12  C   -0.105541
    13  C    0.028043
    14  N   -0.291049
    15  C   -0.015341
    16  C   -0.108289
    17  C   -0.102107
    18  C   -0.104246
    19  C   -0.020058
    20  C   -0.110554
    21  C   -0.066747
    22  C    0.319832
    23  O   -0.277578
    24  O   -0.255393
    25  C   -0.055806
    26  C   -0.079419
    27  C   -0.110255
    28  C    0.007841
    29  C   -0.081220
    30  C   -0.065680
    31  C   -0.077077
    32  C    0.081425
    33  C   -0.012101
    34  N   -0.281434
    35  C    0.006089
    36  C    0.123829
    37  C    0.041673
    38  C   -0.100643
    39  C   -0.107613
    40  C    0.039803
    41  N   -0.081287
    42  C   -0.003874
    43  C   -0.097606
    44  C   -0.099203
    45  C   -0.105411
    46  C   -0.004853
    47  C   -0.096575
    48  C   -0.058674
    49  C    0.330377
    50  O   -0.283885
    51  O   -0.257287
    52  C   -0.054830
    53  C   -0.083119
    54  O   -0.462903
    55  H    0.064272
    56  H    0.058261
    57  H    0.059424
    58  H    0.057207
    59  H    0.051366
    60  H    0.054898
    61  H    0.048899
    62  H    0.050989
    63  H    0.054483
    64  H    0.061530
    65  H    0.054692
    66  H    0.050649
    67  H    0.050618
    68  H    0.051991
    69  H    0.055528
    70  H    0.063984
    71  H    0.053923
    72  H    0.053689
    73  H    0.067378
    74  H    0.051998
    75  H    0.065630
    76  H    0.077880
    77  H    0.073805
    78  H    0.072932
    79  H    0.056026
    80  H    0.072101
    81  H    0.076780
    82  H    0.061247
    83  H    0.059882
    84  H    0.056857
    85  H    0.056299
    86  H    0.065474
    87  H    0.055089
    88  H    0.058378
    89  H    0.053882
    90  H    0.052699
    91  H    0.046683
    92  H    0.084266
    93  H    0.057261
    94  H    0.079900
    95  H    0.058625
    96  H    0.058102
    97  H    0.047314
    98  H    0.063631
    99  H    0.098309
   100  H    0.089389
   101  H    0.057978
   102  H    0.096907
   103  H    0.046896
   104  H    0.069212
   105  H    0.073998
   106  H    0.079675
   107  H    0.067839
   108  H    0.065762
   109  H    0.069623
   110  H    0.065281
 Sum of Mulliken charges =  -0.00000
 Mulliken charges with hydrogens summed into heavy atoms:
               1
     1  C   -0.011970
     2  C   -0.000042
     3  C   -0.003541
     4  C   -0.029933
     5  C    0.088735
     6  C   -0.014338
     7  N   -0.286989
     8  C    0.018178
     9  C    0.127977
    10  C    0.097367
    11  C   -0.008662
    12  C   -0.005653
    13  C    0.028043
    14  N   -0.291049
    15  C    0.100672
    16  C   -0.002948
    17  C    0.000502
    18  C    0.015266
    19  C    0.087554
    20  C    0.008822
    21  C   -0.001117
    22  C    0.319832
    23  O   -0.277578
    24  O   -0.255393
    25  C    0.168811
    26  C    0.125487
    27  C    0.010874
    28  C    0.007841
    29  C   -0.024362
    30  C   -0.009381
    31  C   -0.011603
    32  C    0.081425
    33  C   -0.012101
    34  N   -0.281434
    35  C    0.006089
    36  C    0.123829
    37  C    0.096762
    38  C    0.011617
    39  C   -0.008230
    40  C    0.039803
    41  N   -0.081287
    42  C    0.137652
    43  C    0.040918
    44  C    0.006212
    45  C    0.056529
    46  C    0.142515
    47  C    0.047227
    48  C    0.010538
    49  C    0.330377
    50  O   -0.283885
    51  O   -0.257287
    52  C    0.166681
    53  C    0.117548
    54  O   -0.462903
 Electronic spatial extent (au):  <R**2>=          37882.1797
 Charge=              0.0000 electrons
 Dipole moment (field-independent basis, Debye):
    X=             -5.4258    Y=              0.5725    Z=              1.3667  Tot=              5.6245
 Quadrupole moment (field-independent basis, Debye-Ang):
   XX=           -297.2543   YY=           -304.3250   ZZ=           -293.8012
   XY=              3.1118   XZ=              2.8472   YZ=             -4.2482
 Traceless Quadrupole moment (field-independent basis, Debye-Ang):
   XX=              1.2059   YY=             -5.8649   ZZ=              4.6590
   XY=              3.1118   XZ=              2.8472   YZ=             -4.2482
 Octapole moment (field-independent basis, Debye-Ang**2):
  XXX=           -108.6353  YYY=            -24.8572  ZZZ=             34.6873  XYY=              5.1035
  XXY=            -15.9987  XXZ=             30.3659  XZZ=            -23.4627  YZZ=            -41.2359
  YYZ=              9.1951  XYZ=             -9.2241
 Hexadecapole moment (field-independent basis, Debye-Ang**3):
 XXXX=         -32435.3429 YYYY=          -8475.3961 ZZZZ=          -5389.3549 XXXY=           -175.2735
 XXXZ=           -215.0748 YYYX=            -13.1816 YYYZ=            -48.0781 ZZZX=           -230.8406
 ZZZY=            -56.6193 XXYY=          -7023.6742 XXZZ=          -6447.9187 YYZZ=          -2272.5321
 XXYZ=            -12.9597 YYXZ=           -146.2759 ZZXY=             13.2870
 N-N= 8.123336002910D+03 E-N=-2.162299774946D+04  KE= 2.279174519894D+03
 ******************************Gaussian NBO Version 3.1******************************
             N A T U R A L   A T O M I C   O R B I T A L   A N D
          N A T U R A L   B O N D   O R B I T A L   A N A L Y S I S
 ******************************Gaussian NBO Version 3.1******************************
       /RESON  / : Allow strongly delocalized NBO set
       /NLMO   / : Form Natural Localized Molecular Orbitals
       /NMR /    : Analyze NMR Sheilding Tensor 

 Analyzing the SCF density

 Job title: Pleiokomenine_C_2                                               

 Storage needed:    355564 in NPA,    438187 in NBO,   2133784 in NLMO ( 104796000 available)
 GSVD:  LWork=     -108884 too small for GESVD, short by      536270 words or      536270 for optimal perf.


 NATURAL POPULATIONS:  Natural atomic orbital occupancies 
                                                          
   NAO  Atom  No  lang   Type(AO)    Occupancy      Energy
 ----------------------------------------------------------
     1    C    1  S      Cor( 1S)     1.99993     -10.94667
     2    C    1  S      Val( 2S)     1.08056      -0.17948
     3    C    1  px     Val( 2p)     0.99486       0.07750
     4    C    1  py     Val( 2p)     0.99360       0.09576
     5    C    1  pz     Val( 2p)     0.98884       0.14242
 
     6    C    2  S      Cor( 1S)     1.99990     -10.95662
     7    C    2  S      Val( 2S)     1.07834      -0.18456
     8    C    2  px     Val( 2p)     0.96704       0.09932
     9    C    2  py     Val( 2p)     0.98103       0.10376
    10    C    2  pz     Val( 2p)     0.96023       0.16088
 
    11    C    3  S      Cor( 1S)     1.99994     -10.94905
    12    C    3  S      Val( 2S)     1.08375      -0.18344
    13    C    3  px     Val( 2p)     0.98705       0.08470
    14    C    3  py     Val( 2p)     0.99214       0.09171
    15    C    3  pz     Val( 2p)     0.97031       0.15292
 
    16    C    4  S      Cor( 1S)     1.99993     -10.94286
    17    C    4  S      Val( 2S)     1.07186      -0.17487
    18    C    4  px     Val( 2p)     1.01963       0.07175
    19    C    4  py     Val( 2p)     1.00691       0.09154
    20    C    4  pz     Val( 2p)     0.98784       0.14508
 
    21    C    5  S      Cor( 1S)     1.99985     -10.98977
    22    C    5  S      Val( 2S)     1.05968      -0.18663
    23    C    5  px     Val( 2p)     0.93756       0.08801
    24    C    5  py     Val( 2p)     0.93376       0.11481
    25    C    5  pz     Val( 2p)     0.95736       0.13318
 
    26    C    6  S      Cor( 1S)     1.99990     -10.94838
    27    C    6  S      Val( 2S)     1.08366      -0.19020
    28    C    6  px     Val( 2p)     1.00291       0.07888
    29    C    6  py     Val( 2p)     0.96830       0.11270
    30    C    6  pz     Val( 2p)     0.97065       0.14457
 
    31    N    7  S      Cor( 1S)     1.99998     -15.27161
    32    N    7  S      Val( 2S)     1.40537      -0.59760
    33    N    7  px     Val( 2p)     1.24179      -0.05705
    34    N    7  py     Val( 2p)     1.46274      -0.14450
    35    N    7  pz     Val( 2p)     1.16549      -0.01704
 
    36    C    8  S      Cor( 1S)     1.99996     -11.01048
    37    C    8  S      Val( 2S)     1.10916      -0.23584
    38    C    8  px     Val( 2p)     0.94275       0.10101
    39    C    8  py     Val( 2p)     0.97280       0.08848
    40    C    8  pz     Val( 2p)     0.95553       0.09488
 
    41    C    9  S      Cor( 1S)     1.99996     -11.05353
    42    C    9  S      Val( 2S)     1.11137      -0.25913
    43    C    9  px     Val( 2p)     0.92921       0.09225
    44    C    9  py     Val( 2p)     0.92342       0.08778
    45    C    9  pz     Val( 2p)     0.86483       0.10279
 
    46    C   10  S      Cor( 1S)     1.99993     -11.02128
    47    C   10  S      Val( 2S)     1.09690      -0.22295
    48    C   10  px     Val( 2p)     0.92662       0.10439
    49    C   10  py     Val( 2p)     0.95425       0.08604
    50    C   10  pz     Val( 2p)     0.94874       0.08804
 
    51    C   11  S      Cor( 1S)     1.99994     -10.98393
    52    C   11  S      Val( 2S)     1.10366      -0.21815
    53    C   11  px     Val( 2p)     0.99639       0.07816
    54    C   11  py     Val( 2p)     0.99641       0.08149
    55    C   11  pz     Val( 2p)     0.98877       0.08194
 
    56    C   12  S      Cor( 1S)     1.99996     -10.98177
    57    C   12  S      Val( 2S)     1.09161      -0.20411
    58    C   12  px     Val( 2p)     0.99947       0.08670
    59    C   12  py     Val( 2p)     0.99404       0.08383
    60    C   12  pz     Val( 2p)     0.98852       0.08446
 
    61    C   13  S      Cor( 1S)     1.99998     -11.00829
    62    C   13  S      Val( 2S)     1.10499      -0.23195
    63    C   13  px     Val( 2p)     0.95658       0.09630
    64    C   13  py     Val( 2p)     0.94558       0.10339
    65    C   13  pz     Val( 2p)     0.94240       0.10742
 
    66    N   14  S      Cor( 1S)     1.99999     -15.24339
    67    N   14  S      Val( 2S)     1.42515      -0.58641
    68    N   14  px     Val( 2p)     1.48968      -0.13531
    69    N   14  py     Val( 2p)     1.26167      -0.04346
    70    N   14  pz     Val( 2p)     1.10267       0.02439
 
    71    C   15  S      Cor( 1S)     1.99994     -11.01187
    72    C   15  S      Val( 2S)     1.06977      -0.19388
    73    C   15  px     Val( 2p)     0.96811       0.09180
    74    C   15  py     Val( 2p)     1.00443       0.08035
    75    C   15  pz     Val( 2p)     0.91951       0.09832
 
    76    C   16  S      Cor( 1S)     1.99997     -10.98028
    77    C   16  S      Val( 2S)     1.08108      -0.19374
    78    C   16  px     Val( 2p)     0.98231       0.08847
    79    C   16  py     Val( 2p)     0.99343       0.09043
    80    C   16  pz     Val( 2p)     1.01788       0.08212
 
    81    C   17  S      Cor( 1S)     1.99996     -10.98317
    82    C   17  S      Val( 2S)     1.08587      -0.19864
    83    C   17  px     Val( 2p)     0.99763       0.08686
    84    C   17  py     Val( 2p)     0.99945       0.08586
    85    C   17  pz     Val( 2p)     0.98556       0.08644
 
    86    C   18  S      Cor( 1S)     1.99995     -10.98221
    87    C   18  S      Val( 2S)     1.09217      -0.20267
    88    C   18  px     Val( 2p)     0.99933       0.08253
    89    C   18  py     Val( 2p)     0.98238       0.08116
    90    C   18  pz     Val( 2p)     0.99977       0.09079
 
    91    C   19  S      Cor( 1S)     1.99994     -11.00567
    92    C   19  S      Val( 2S)     1.07155      -0.19032
    93    C   19  px     Val( 2p)     1.00803       0.07736
    94    C   19  py     Val( 2p)     0.95435       0.10701
    95    C   19  pz     Val( 2p)     0.93321       0.08792
 
    96    C   20  S      Cor( 1S)     1.99992     -10.98834
    97    C   20  S      Val( 2S)     1.09968      -0.21613
    98    C   20  px     Val( 2p)     1.02199       0.07080
    99    C   20  py     Val( 2p)     1.00094       0.08194
   100    C   20  pz     Val( 2p)     0.95125       0.08615
 
   101    C   21  S      Cor( 1S)     1.99994     -11.01210
   102    C   21  S      Val( 2S)     1.11074      -0.24272
   103    C   21  px     Val( 2p)     1.00659       0.06043
   104    C   21  py     Val( 2p)     0.98382       0.06855
   105    C   21  pz     Val( 2p)     0.98369       0.07299
 
   106    C   22  S      Cor( 1S)     1.99991     -11.11612
   107    C   22  S      Val( 2S)     1.05486      -0.26504
   108    C   22  px     Val( 2p)     0.87115       0.00972
   109    C   22  py     Val( 2p)     0.86740       0.11712
   110    C   22  pz     Val( 2p)     0.80335       0.13625
 
   111    O   23  S      Cor( 1S)     1.99999     -20.10252
   112    O   23  S      Val( 2S)     1.80810      -1.06244
   113    O   23  px     Val( 2p)     1.31715      -0.14684
   114    O   23  py     Val( 2p)     1.37957      -0.13987
   115    O   23  pz     Val( 2p)     1.80696      -0.30725
 
   116    O   24  S      Cor( 1S)     1.99999     -20.21941
   117    O   24  S      Val( 2S)     1.73013      -1.03200
   118    O   24  px     Val( 2p)     1.74363      -0.33356
   119    O   24  py     Val( 2p)     1.59594      -0.27212
   120    O   24  pz     Val( 2p)     1.19732      -0.09088
 
   121    C   25  S      Cor( 1S)     1.99984     -11.04942
   122    C   25  S      Val( 2S)     1.07705      -0.23112
   123    C   25  px     Val( 2p)     0.99404       0.04682
   124    C   25  py     Val( 2p)     0.93372       0.06125
   125    C   25  pz     Val( 2p)     0.96074       0.04354
 
   126    C   26  S      Cor( 1S)     1.99992     -11.01834
   127    C   26  S      Val( 2S)     1.06556      -0.19910
   128    C   26  px     Val( 2p)     0.99314       0.06569
   129    C   26  py     Val( 2p)     1.01263       0.06413
   130    C   26  pz     Val( 2p)     0.94543       0.07529
 
   131    C   27  S      Cor( 1S)     1.99995     -10.98509
   132    C   27  S      Val( 2S)     1.08410      -0.19103
   133    C   27  px     Val( 2p)     0.97762       0.09587
   134    C   27  py     Val( 2p)     1.01159       0.08493
   135    C   27  pz     Val( 2p)     1.01454       0.08582
 
   136    C   28  S      Cor( 1S)     1.99990     -10.96232
   137    C   28  S      Val( 2S)     1.08218      -0.18908
   138    C   28  px     Val( 2p)     0.93943       0.16369
   139    C   28  py     Val( 2p)     0.95706       0.17513
   140    C   28  pz     Val( 2p)     0.99320       0.02303
 
   141    C   29  S      Cor( 1S)     1.99992     -10.94570
   142    C   29  S      Val( 2S)     1.07665      -0.17761
   143    C   29  px     Val( 2p)     0.98245       0.15124
   144    C   29  py     Val( 2p)     0.98082       0.15368
   145    C   29  pz     Val( 2p)     1.02794       0.00549
 
   146    C   30  S      Cor( 1S)     1.99994     -10.94713
   147    C   30  S      Val( 2S)     1.08441      -0.18343
   148    C   30  px     Val( 2p)     0.96585       0.16243
   149    C   30  py     Val( 2p)     0.97530       0.15706
   150    C   30  pz     Val( 2p)     1.01631       0.01085
 
   151    C   31  S      Cor( 1S)     1.99993     -10.94428
   152    C   31  S      Val( 2S)     1.07668      -0.17514
   153    C   31  px     Val( 2p)     0.98473       0.15185
   154    C   31  py     Val( 2p)     0.98029       0.15792
   155    C   31  pz     Val( 2p)     1.02563       0.00972
 
   156    C   32  S      Cor( 1S)     1.99985     -10.97900
   157    C   32  S      Val( 2S)     1.06600      -0.18529
   158    C   32  px     Val( 2p)     0.88808       0.16475
   159    C   32  py     Val( 2p)     0.96275       0.16789
   160    C   32  pz     Val( 2p)     0.98312       0.02151
 
   161    C   33  S      Cor( 1S)     1.99990     -10.95043
   162    C   33  S      Val( 2S)     1.08725      -0.19324
   163    C   33  px     Val( 2p)     0.97497       0.16947
   164    C   33  py     Val( 2p)     0.95167       0.14690
   165    C   33  pz     Val( 2p)     1.00345       0.01743
 
   166    N   34  S      Cor( 1S)     1.99998     -15.25725
   167    N   34  S      Val( 2S)     1.44496      -0.60014
   168    N   34  px     Val( 2p)     1.13170       0.01095
   169    N   34  py     Val( 2p)     1.17404      -0.01988
   170    N   34  pz     Val( 2p)     1.52209      -0.14970
 
   171    C   35  S      Cor( 1S)     1.99996     -11.00891
   172    C   35  S      Val( 2S)     1.10489      -0.23448
   173    C   35  px     Val( 2p)     0.99245       0.06070
   174    C   35  py     Val( 2p)     0.95302       0.11314
   175    C   35  pz     Val( 2p)     0.95049       0.10072
 
   176    C   36  S      Cor( 1S)     1.99996     -11.04344
   177    C   36  S      Val( 2S)     1.12265      -0.25926
   178    C   36  px     Val( 2p)     0.92269       0.09248
   179    C   36  py     Val( 2p)     0.84942       0.14098
   180    C   36  pz     Val( 2p)     0.93633       0.08430
 
   181    C   37  S      Cor( 1S)     1.99991     -11.03246
   182    C   37  S      Val( 2S)     1.11001      -0.24942
   183    C   37  px     Val( 2p)     1.00384       0.06300
   184    C   37  py     Val( 2p)     0.89532       0.08280
   185    C   37  pz     Val( 2p)     0.91840       0.07886
 
   186    C   38  S      Cor( 1S)     1.99991     -10.97242
   187    C   38  S      Val( 2S)     1.11174      -0.21019
   188    C   38  px     Val( 2p)     1.00017       0.09971
   189    C   38  py     Val( 2p)     0.99159       0.10178
   190    C   38  pz     Val( 2p)     0.96226       0.09229
 
   191    C   39  S      Cor( 1S)     1.99996     -10.97339
   192    C   39  S      Val( 2S)     1.08985      -0.19477
   193    C   39  px     Val( 2p)     1.00770       0.09068
   194    C   39  py     Val( 2p)     0.98606       0.08880
   195    C   39  pz     Val( 2p)     0.99574       0.09408
 
   196    C   40  S      Cor( 1S)     1.99998     -11.00951
   197    C   40  S      Val( 2S)     1.09761      -0.22312
   198    C   40  px     Val( 2p)     0.95296       0.10732
   199    C   40  py     Val( 2p)     0.94952       0.10529
   200    C   40  pz     Val( 2p)     0.94205       0.10377
 
   201    N   41  S      Cor( 1S)     1.99999     -15.41742
   202    N   41  S      Val( 2S)     1.39334      -0.65751
   203    N   41  px     Val( 2p)     1.26520      -0.13513
   204    N   41  py     Val( 2p)     1.16532      -0.10058
   205    N   41  pz     Val( 2p)     1.14315      -0.10175
 
   206    C   42  S      Cor( 1S)     1.99992     -11.03732
   207    C   42  S      Val( 2S)     1.09129      -0.23426
   208    C   42  px     Val( 2p)     0.90782       0.08396
   209    C   42  py     Val( 2p)     0.94433       0.06516
   210    C   42  pz     Val( 2p)     1.00700       0.04951
 
   211    C   43  S      Cor( 1S)     1.99995     -10.99056
   212    C   43  S      Val( 2S)     1.08674      -0.20421
   213    C   43  px     Val( 2p)     1.02726       0.07897
   214    C   43  py     Val( 2p)     0.99711       0.07924
   215    C   43  pz     Val( 2p)     0.95312       0.09596
 
   216    C   44  S      Cor( 1S)     1.99995     -10.98577
   217    C   44  S      Val( 2S)     1.09147      -0.20419
   218    C   44  px     Val( 2p)     1.00145       0.08711
   219    C   44  py     Val( 2p)     0.98109       0.09051
   220    C   44  pz     Val( 2p)     0.98850       0.08538
 
   221    C   45  S      Cor( 1S)     1.99993     -10.98533
   222    C   45  S      Val( 2S)     1.09867      -0.20921
   223    C   45  px     Val( 2p)     1.01971       0.07681
   224    C   45  py     Val( 2p)     0.99202       0.08139
   225    C   45  pz     Val( 2p)     0.96339       0.09248
 
   226    C   46  S      Cor( 1S)     1.99993     -11.03200
   227    C   46  S      Val( 2S)     1.09436      -0.23328
   228    C   46  px     Val( 2p)     1.00087       0.06546
   229    C   46  py     Val( 2p)     0.95531       0.05957
   230    C   46  pz     Val( 2p)     0.90350       0.07681
 
   231    C   47  S      Cor( 1S)     1.99991     -10.97324
   232    C   47  S      Val( 2S)     1.10397      -0.20148
   233    C   47  px     Val( 2p)     0.94423       0.10903
   234    C   47  py     Val( 2p)     0.99862       0.10114
   235    C   47  pz     Val( 2p)     1.01153       0.09530
 
   236    C   48  S      Cor( 1S)     1.99993     -11.00414
[...]
  103       1.5457        0.1470       1.3987        -0.2724       1.8182
  104      26.2428        0.8661      25.3767         0.5360      25.7068
  105       0.2302       -1.2532       1.4834        -0.4372       0.6674
  107       0.0880       -1.2320       1.3200        -0.8242       0.9121
 Sum       30.9143       -2.9513      33.8656         0.1388      30.7755

 Contributions to Isotropic shielding for atom   94 (    31.2670 ppm):
                         Standard Origin              Atomic Origin
 NLMO      Total    Paramagnetic  Diamagnetic   Paramagnetic  Diamagnetic
   99      -0.5471        0.4114      -0.9585        -1.4195       0.8724
  102       1.1253        1.0746       0.0507         0.2343       0.8910
  105       0.7383        2.3340      -1.5957        -0.4244       1.1627
  106      25.8140       -0.3109      26.1249         0.5573      25.2567
  107       2.0174        2.8678      -0.8503         0.1854       1.8321
  108       0.1183        0.3560      -0.2377        -0.8847       1.0029
  116      -0.2395       -1.5456       1.3061        -0.5383       0.2988
 Sum       29.0267        5.1872      23.8395        -2.2899      31.3167

 Contributions to Isotropic shielding for atom   95 (    32.4795 ppm):
                         Standard Origin              Atomic Origin
 NLMO      Total    Paramagnetic  Diamagnetic   Paramagnetic  Diamagnetic
  102       1.5597       -0.1057       1.6654         0.6009       0.9587
  105       1.2554        0.8166       0.4388         0.1519       1.1035
  106       1.8531        3.3103      -1.4572         0.0127       1.8404
  107      26.2110        0.0866      26.1244         0.4096      25.8014
  109       0.0701       -0.1998       0.2699        -1.0507       1.1208
 Sum       30.9493        3.9079      27.0414         0.1245      30.8248

 Contributions to Isotropic shielding for atom   96 (    32.2616 ppm):
                         Standard Origin              Atomic Origin
 NLMO      Total    Paramagnetic  Diamagnetic   Paramagnetic  Diamagnetic
   97       0.7411        1.9926      -1.2515        -0.2216       0.9627
   98      -0.2090        0.8816      -1.0905        -1.1851       0.9762
  105       0.7091        2.3661      -1.6570        -0.3583       1.0674
  106       0.1241        0.1744      -0.0503        -0.9821       1.1062
  108      26.3675       -0.2088      26.5763         0.6122      25.7553
  109       2.2576        0.9447       1.3129         0.5295       1.7281
  117       0.0612       -1.0477       1.1089        -0.7943       0.8555
 Sum       30.0517        5.1028      24.9489        -2.3998      32.4514

 Contributions to Isotropic shielding for atom   97 (    32.9571 ppm):
                         Standard Origin              Atomic Origin
 NLMO      Total    Paramagnetic  Diamagnetic   Paramagnetic  Diamagnetic
   97       1.8245       -0.9123       2.7368         0.8750       0.9495
  102       0.2281       -0.9590       1.1871        -0.3162       0.5443
  105       1.4749       -0.9995       2.4744         0.3575       1.1174
  107      -0.0033       -0.8308       0.8274        -1.0210       1.0177
  108       1.7066        1.8410      -0.1344        -0.1308       1.8374
  109      26.3638        0.5199      25.8439         0.3120      26.0517
 Sum       31.5944       -1.3407      32.9352         0.0765      31.5179

 Contributions to Isotropic shielding for atom   98 (    32.8882 ppm):
                         Standard Origin              Atomic Origin
 NLMO      Total    Paramagnetic  Diamagnetic   Paramagnetic  Diamagnetic
   71      -0.6639       -0.3422      -0.3217        -1.7315       1.0677
   80       0.1026        0.2432      -0.1406        -0.9738       1.0764
   85       1.2946       -0.3576       1.6522         0.6497       0.6449
  110       1.2119       -0.2340       1.4459         0.3977       0.8142
  111      26.1425        0.2486      25.8939         0.5720      25.5705
  112       1.7881        2.7695      -0.9814        -0.1384       1.9264
  121       0.1182       -1.3395       1.4577        -0.6596       0.7779
  127      -0.1024       -1.2933       1.1909        -0.2239       0.1215
  191      -0.3755        0.7782      -1.1536         0.2921      -0.6676
 Sum       29.5161        0.4730      29.0432        -1.8157      31.3318

 Contributions to Isotropic shielding for atom   99 (    31.2625 ppm):
                         Standard Origin              Atomic Origin
 NLMO      Total    Paramagnetic  Diamagnetic   Paramagnetic  Diamagnetic
   83      -0.4465        1.0008      -1.4472        -0.8573       0.4109
   85       0.5246        1.1280      -0.6034        -0.3069       0.8315
   89      -0.1777       -0.0895      -0.0881        -1.0580       0.8804
  100      -0.3759        0.1799      -0.5557        -1.2115       0.8357
  110       1.0011        1.0730      -0.0719         0.2489       0.7522
  111       1.6857        2.2167      -0.5310        -0.2347       1.9204
  112      25.5128       -0.1590      25.6718         0.6609      24.8519
  113       0.0570        0.5981      -0.5411        -0.9525       1.0095
  118       0.7184       -1.1167       1.8351        -0.1562       0.8746
  120       1.3801       -0.9816       2.3617         0.7050       0.6750
  121       0.0193       -3.8292       3.8484        -1.0731       1.0924
  123       0.2904       -0.8902       1.1806        -0.4229       0.7133
  125      -0.0005       -1.0989       1.0984        -0.4761       0.4756
  127      -0.1263       -1.1444       1.0181        -0.3394       0.2131
  191      -0.9345        1.9977      -2.9322         0.1429      -1.0774
  195       0.0354        0.0458      -0.0104         1.0324      -0.9970
 Sum       29.1634       -1.0697      30.2331        -4.2986      33.4620

 Contributions to Isotropic shielding for atom  100 (    31.0465 ppm):
                         Standard Origin              Atomic Origin
 NLMO      Total    Paramagnetic  Diamagnetic   Paramagnetic  Diamagnetic
  100      -0.0687        1.0920      -1.1606        -0.8467       0.7780
  101       0.0083       -0.0579       0.0663        -1.0104       1.0187
  110       0.3177        1.7138      -1.3961        -0.6570       0.9747
  112       0.1234       -0.4523       0.5757        -0.9155       1.0388
  113      25.8488        0.4673      25.3815         0.9721      24.8767
  114       1.9428       -0.6091       2.5519         0.2526       1.6901
  195       0.1961       -0.1046       0.3007         1.0086      -0.8125
 Sum       28.3685        2.0491      26.3194        -1.1962      29.5647

 Contributions to Isotropic shielding for atom  101 (    31.7222 ppm):
                         Standard Origin              Atomic Origin
 NLMO      Total    Paramagnetic  Diamagnetic   Paramagnetic  Diamagnetic
   71       0.1259       -0.4938       0.6196        -1.0094       1.1353
   85       0.3648       -0.8948       1.2595        -0.4008       0.7656
  100       1.5659       -0.9838       2.5498         1.1082       0.4577
  110       0.9591       -0.6080       1.5670         0.1279       0.8312
  111       0.1229       -0.9842       1.1071        -0.7807       0.9036
  113       1.4365        0.3017       1.1347        -0.4035       1.8400
  114      26.2177        0.8744      25.3434         0.5599      25.6578
 Sum       30.7928       -2.7884      33.5813        -0.7984      31.5913

 Contributions to Isotropic shielding for atom  102 (    30.2755 ppm):
                         Standard Origin              Atomic Origin
 NLMO      Total    Paramagnetic  Diamagnetic   Paramagnetic  Diamagnetic
   87       0.3998       -0.8892       1.2891         0.2776       0.1222
   89      -0.5577        0.2671      -0.8248        -1.4553       0.8975
   97      -0.2361        1.1799      -1.4159        -1.0666       0.8305
   98       1.8425       -1.4305       3.2731         0.9065       0.9360
  115       0.4246        1.8629      -1.4384        -0.4508       0.8753
  116      25.3981        0.0180      25.3801         0.6338      24.7642
  117       1.3347        3.1198      -1.7852        -0.5882       1.9229
  118      -0.1709       -0.3509       0.1800        -1.2361       1.0652
  122       1.3981       -2.1019       3.5001         0.1266       1.2716
  124       0.1292       -0.9645       1.0937        -0.5261       0.6553
  125       0.1671       -1.2505       1.4175        -0.5312       0.6983
  193      -1.2217        1.4019      -2.6235         0.0983      -1.3199
  194      -0.5613       -1.3522       0.7910        -0.9121       0.3508
 Sum       28.3465       -0.4903      28.8367        -4.7235      33.0700

 Contributions to Isotropic shielding for atom  103 (    31.7056 ppm):
                         Standard Origin              Atomic Origin
 NLMO      Total    Paramagnetic  Diamagnetic   Paramagnetic  Diamagnetic
   86      -0.0552        0.2407      -0.2960        -1.0018       0.9466
   87       0.3482       -0.7619       1.1101         0.0158       0.3324
   94      -0.3809        1.5887      -1.9696        -1.3458       0.9648
   97      -0.1370        1.2583      -1.3953        -0.7351       0.5981
   98       1.7134       -0.3942       2.1077         0.7605       0.9529
  115       0.3906        3.2381      -2.8475        -0.7235       1.1140
  116       1.7782        2.9749      -1.1967        -0.2387       2.0169
  117      26.7192       -0.4547      27.1739         0.6849      26.0343
  119      -0.1394       -0.7685       0.6291        -1.2534       1.1139
  122       0.7274       -1.1163       1.8436        -0.3970       1.1244
  193      -0.7072        0.3878      -1.0950         0.1933      -0.9005
 Sum       30.2571        6.1928      24.0643        -4.0407      34.2978

 Contributions to Isotropic shielding for atom  104 (    31.1473 ppm):
                         Standard Origin              Atomic Origin
 NLMO      Total    Paramagnetic  Diamagnetic   Paramagnetic  Diamagnetic
   81      -0.5356        1.6046      -2.1402        -1.4529       0.9173
   86      -0.2219        1.8626      -2.0845        -1.4448       1.2229
   87       1.4292        1.0516       0.3775         0.3764       1.0527
  115       1.4722        2.3948      -0.9226         0.2624       1.2098
  117      -0.1745        0.5463      -0.7208        -1.3184       1.1440
  118       0.0618        5.4866      -5.4248        -0.9997       1.0615
  119      26.0326       -0.8182      26.8508         0.5356      25.4969
  122       0.3749       -1.0867       1.4616        -1.0847       1.4596
  128      -0.1037       -1.6866       1.5829        -0.6781       0.5744
 Sum       28.3350        9.3552      18.9798        -5.8042      34.1392

 Contributions to Isotropic shielding for atom  105 (    30.6895 ppm):
                         Standard Origin              Atomic Origin
 NLMO      Total    Paramagnetic  Diamagnetic   Paramagnetic  Diamagnetic
  120      -0.6314        0.3064      -0.9378        -1.2670       0.6356
  121      -0.0937        1.0267      -1.1204        -1.1305       1.0367
  123       0.9034        1.5146      -0.6112        -1.1823       2.0857
  124      26.1394        0.3624      25.7771         0.8488      25.2907
  125       1.4798        0.8181       0.6617        -0.5231       2.0028
  126       0.5799        4.1557      -3.5759        -1.3956       1.9755
  193       0.9239       -1.0055       1.9294         1.3908      -0.4669
 Sum       29.3012        7.1784      22.1228        -3.2588      32.5600

 Contributions to Isotropic shielding for atom  106 (    30.6178 ppm):
                         Standard Origin              Atomic Origin
 NLMO      Total    Paramagnetic  Diamagnetic   Paramagnetic  Diamagnetic
  120      -0.8937        0.6236      -1.5173        -1.7832       0.8895
  121      -0.3112        1.2139      -1.5251        -1.8598       1.5486
  122      -1.0657        1.1311      -2.1968        -1.9575       0.8918
  123       2.9486       -5.5975       8.5461         1.5428       1.4058
  124       1.5054        1.3065       0.1989        -0.5309       2.0364
  125      25.9597        1.0687      24.8910         0.8979      25.0618
  126       1.2112        1.2763      -0.0651        -0.6538       1.8650
  191       0.2637       -0.9295       1.1932         1.0250      -0.7614
 Sum       29.6180        0.0932      29.5248        -3.3195      32.9374

 Contributions to Isotropic shielding for atom  107 (    30.6682 ppm):
                         Standard Origin              Atomic Origin
 NLMO      Total    Paramagnetic  Diamagnetic   Paramagnetic  Diamagnetic
  120      -1.3019        0.8756      -2.1775        -2.1975       0.8956
  121      -0.5460        2.2490      -2.7950        -2.0891       1.5431
  122      -1.7911        1.1318      -2.9229        -2.5744       0.7834
  123       1.1230        0.6897       0.4333        -0.3770       1.5000
  124       1.1277        4.6442      -3.5165        -0.9042       2.0319
  125       1.5791        0.5492       1.0299        -0.2953       1.8744
  126      26.5640        0.5926      25.9713         1.2087      25.3552
  191       0.6094       -1.6952       2.3046         1.3929      -0.7834
  192       0.7895        1.0434      -0.2539         1.0395      -0.2500
  193       1.5727       -1.1125       2.6852         1.6208      -0.0481
 Sum       29.7263        8.9678      20.7586        -3.1758      32.9022

 Contributions to Isotropic shielding for atom  108 (    31.6032 ppm):
                         Standard Origin              Atomic Origin
 NLMO      Total    Paramagnetic  Diamagnetic   Paramagnetic  Diamagnetic
   76      -0.9863        0.2758      -1.2621        -1.7912       0.8050
   79      -0.1860        1.0006      -1.1866        -0.8211       0.6351
   82       2.2061       -3.4317       5.6378         1.4033       0.8028
   85      -0.1922        0.9417      -1.1339        -1.1273       0.9352
  121       0.1513       -1.4480       1.5993        -0.7450       0.8964
  127      26.2617        0.9223      25.3394         0.8080      25.4537
  128       1.7831        2.2353      -0.4522        -0.0371       1.8202
  129       1.7096        1.8743      -0.1647        -0.1905       1.9001
  191      -0.5053        1.0228      -1.5281         0.4799      -0.9852
 Sum       30.2421        3.3931      26.8490        -2.0212      32.2633

 Contributions to Isotropic shielding for atom  109 (    31.7794 ppm):
                         Standard Origin              Atomic Origin
 NLMO      Total    Paramagnetic  Diamagnetic   Paramagnetic  Diamagnetic
   76      -0.6379        0.1435      -0.7813        -1.4599       0.8220
   81      -0.4305        1.0449      -1.4754        -1.0322       0.6017
   82       1.0265        0.4881       0.5384        -0.2871       1.3136
   87      -0.3039        1.2882      -1.5921        -1.2315       0.9275
  118      -0.1344        0.2467      -0.3812        -1.1286       0.9942
  121      -0.3085       -0.3140       0.0055        -1.3937       1.0852
  127       1.6945        0.9151       0.7793        -0.0838       1.7783
  128      26.2065        0.1460      26.0605         0.7317      25.4748
  129       1.4064        4.2907      -2.8843        -0.5959       2.0023
  190       0.8256       -0.2850       1.1106         0.8755      -0.0499
  191       0.0463       -0.0020       0.0483         1.0148      -0.9685
 Sum       29.3905        7.9623      21.4282        -4.5907      33.9812

 Contributions to Isotropic shielding for atom  110 (    31.1700 ppm):
                         Standard Origin              Atomic Origin
 NLMO      Total    Paramagnetic  Diamagnetic   Paramagnetic  Diamagnetic
   75      -0.4934        1.0858      -1.5792        -1.1811       0.6878
   76      -1.1119        0.4790      -1.5909        -2.3926       1.2806
   79      -0.5287        1.4448      -1.9735        -1.3914       0.8627
   82       1.3514       -0.1735       1.5249         0.1305       1.2208
  127       1.6618        0.8627       0.7991        -0.1789       1.8407
  128       1.3801        4.1642      -2.7841        -0.6086       1.9888
  129      26.2494        0.1081      26.1414         0.6982      25.5512
  190       0.9266       -0.0793       1.0060         0.9278      -0.0012
 Sum       29.4354        7.8918      21.5437        -3.9960      33.4314
 
 1\1\GINC-PCSN02\SP\RHF\STO-3G\C45H56N4O5\ABENIDD\30-May-2024\0\\# nmr=
 giao hf/sto-3g pop=nbo geom=connectivity\\Pleiokomenine_C_2\\0,1\C,0,0
 .,0.,0.\C,0,1.4016,0.,0.\C,0,2.0959,1.2281,0.\C,0,1.4114,2.4505,-0.005
 3\C,0,0.0276,2.4438,-0.0002\C,0,-0.661,1.2184,0.0265\N,0,-0.8552,3.556
 8,-0.007\C,0,-2.134,1.497,0.1896\C,0,-2.1401,2.9466,-0.4349\C,0,-3.177
 2,0.6295,-0.5269\C,0,-2.1614,2.8195,-2.0197\C,0,-3.431,2.105,-2.5023\C
 ,0,-4.1935,1.5536,-1.2808\N,0,-3.7385,-0.2217,0.5264\C,0,-4.9833,-0.89
 18,0.1754\C,0,-6.023,-0.0118,-0.5183\C,0,-5.4192,0.7339,-1.7085\C,0,-2
 .4407,1.3075,1.6968\C,0,-3.753,0.5381,1.7662\C,0,-4.6319,2.8153,-0.461
 1\C,0,-3.4253,3.7235,-0.0999\C,0,-3.5335,4.2972,1.3017\O,0,-4.2499,3.8
 544,2.191\O,0,-2.7745,5.4228,1.4198\C,0,-2.7988,6.0128,2.7193\C,0,-0.3
 585,4.7793,-0.621\C,0,2.1619,-1.3066,0.106\C,0,2.5865,-1.6647,1.5184\C
 ,0,1.7114,-1.4875,2.6022\C,0,3.8563,-2.2424,1.7461\C,0,4.2767,-2.6008,
 3.0341\C,0,3.4169,-2.38,4.0943\C,0,2.1387,-1.8364,3.8719\N,0,3.7229,-2
 .5636,5.4897\C,0,1.3797,-1.8613,5.1751\C,0,2.6252,-1.7649,6.1146\C,0,0
 .4233,-0.7458,5.5732\C,0,3.2411,-0.2491,6.0215\C,0,2.1811,0.8315,6.226
 6\C,0,0.8971,0.1588,6.7214\N,0,-0.8831,-1.4319,5.9347\C,0,-1.9611,-0.3
 971,5.9372\C,0,-1.6474,0.6322,7.0401\C,0,-0.213,1.2044,6.9874\C,0,0.45
 57,-3.1056,5.0411\C,0,-0.9561,-2.5067,4.9135\C,0,1.337,-0.6498,7.9867\
 C,0,2.2958,-1.8532,7.6287\C,0,1.7735,-3.1611,8.2136\O,0,1.8138,-4.2625
 ,7.6841\O,0,1.3846,-2.968,9.5121\C,0,0.8272,-4.1272,10.1295\C,0,3.9167
 ,-3.9712,5.806\O,0,-0.8948,-2.0609,7.1557\H,0,-0.5612,-0.9295,0.0437\H
 ,0,3.184,1.2343,0.0277\H,0,1.9721,3.378,0.0059\H,0,-2.6969,-0.0358,-1.
 2572\H,0,-2.1131,3.8113,-2.4873\H,0,-1.2839,2.2791,-2.396\H,0,-4.0602,
 2.8022,-3.0699\H,0,-3.159,1.3013,-3.1979\H,0,-4.733,-1.7195,-0.501\H,0
 ,-5.4266,-1.3639,1.0607\H,0,-6.8501,-0.6399,-0.8698\H,0,-6.4554,0.6949
 ,0.1981\H,0,-5.1297,0.002,-2.4739\H,0,-6.1792,1.3791,-2.1649\H,0,-1.67
 63,0.6825,2.1821\H,0,-2.4542,2.2307,2.2747\H,0,-3.7673,-0.1242,2.6386\
 H,0,-4.6092,1.2083,1.853\H,0,-5.2138,2.5372,0.4177\H,0,-5.3294,3.41,-1
 .0687\H,0,-3.4953,4.6046,-0.7564\H,0,-2.1236,6.8728,2.7133\H,0,-2.4453
 ,5.301,3.472\H,0,-3.8068,6.3647,2.9598\H,0,0.0522,4.5996,-1.621\H,0,0.
 4206,5.231,0.0023\H,0,-1.1594,5.5187,-0.716\H,0,1.5528,-2.1283,-0.2922
 \H,0,3.0423,-1.2406,-0.5467\H,0,0.7114,-1.0959,2.4532\H,0,4.5383,-2.40
 34,0.9134\H,0,5.2706,-3.0014,3.1994\H,0,0.1904,-0.1357,4.6873\H,0,3.75
 27,-0.0485,5.0716\H,0,4.0323,-0.1406,6.7773\H,0,2.5431,1.5826,6.9393\H
 ,0,2.0053,1.3618,5.2818\H,0,-2.9042,-0.9194,6.1293\H,0,-1.9904,0.0582,
 4.9419\H,0,-1.795,0.1656,8.022\H,0,-2.369,1.4551,6.9817\H,0,-0.0045,1.
 7529,7.914\H,0,-0.1952,1.9505,6.1811\H,0,0.6655,-3.7564,4.1842\H,0,0.4
 894,-3.7418,5.9223\H,0,-1.7573,-3.2016,5.1808\H,0,-1.1443,-2.0398,3.94
 14\H,0,0.4723,-0.9552,8.5807\H,0,1.8861,0.0247,8.6603\H,0,3.2374,-1.70
 39,8.1797\H,0,0.4613,-3.8407,11.1194\H,0,-0.0177,-4.5089,9.5473\H,0,1.
 5942,-4.8978,10.2534\H,0,3.0413,-4.5797,5.5572\H,0,4.1584,-4.0863,6.86
 65\H,0,4.7753,-4.3763,5.2577\\Version=ES64L-G16RevB.01\State=1-A\HF=-2
 300.1950666\RMSD=9.881e-09\Dipole=-0.6482917,1.4608814,-1.5304357\Quad
 rupole=-0.9573692,2.2427205,-1.2853514,-0.6486178,4.559329,3.2724773\P
 G=C01 [X(C45H56N4O5)]\\@


 QUANTUM MECHANICS IS BOHRING -- M.S. GORDON
 Job cpu time:       0 days  0 hours 11 minutes 30.3 seconds.
 Elapsed time:       0 days  0 hours  1 minutes 58.0 seconds.
 File lengths (MBytes):  RWF=     67 Int=      0 D2E=      0 Chk=     10 Scr=      1
 Normal termination of Gaussian 16 at Thu May 30 09:41:30 2024.
