 Entering Gaussian System, Link 0=g16
 Input=2_pleiokomenine_2a_c_1.gjf
 Output=2_pleiokomenine_2a_c_1.log
 Initial command:
 /opt/gaussian/g16/l1.exe "/data/abenidd/Elvis/pleiokomenine_C/NMR_HF/2a/2_pleiokomenine_2a_c_1/Gau-26641.inp" -scrdir="/data/abenidd/Elvis/pleiokomenine_C/NMR_HF/2a/2_pleiokomenine_2a_c_1/"
 Entering Link 1 = /opt/gaussian/g16/l1.exe PID=     26643.
  
 Copyright (c) 1988-2017, Gaussian, Inc.  All Rights Reserved.
  
 This is part of the Gaussian(R) 16 program.  It is based on
 the Gaussian(R) 09 system (copyright 2009, Gaussian, Inc.),
 the Gaussian(R) 03 system (copyright 2003, Gaussian, Inc.),
 the Gaussian(R) 98 system (copyright 1998, Gaussian, Inc.),
 the Gaussian(R) 94 system (copyright 1995, Gaussian, Inc.),
 the Gaussian 92(TM) system (copyright 1992, Gaussian, Inc.),
 the Gaussian 90(TM) system (copyright 1990, Gaussian, Inc.),
 the Gaussian 88(TM) system (copyright 1988, Gaussian, Inc.),
 the Gaussian 86(TM) system (copyright 1986, Carnegie Mellon
 University), and the Gaussian 82(TM) system (copyright 1983,
 Carnegie Mellon University). Gaussian is a federally registered
 trademark of Gaussian, Inc.
  
 This software contains proprietary and confidential information,
 including trade secrets, belonging to Gaussian, Inc.
  
 This software is provided under written license and may be
 used, copied, transmitted, or stored only in accord with that
 written license.
  
 The following legend is applicable only to US Government
 contracts under FAR:
  
                    RESTRICTED RIGHTS LEGEND
  
 Use, reproduction and disclosure by the US Government is
 subject to restrictions as set forth in subparagraphs (a)
 and (c) of the Commercial Computer Software - Restricted
 Rights clause in FAR 52.227-19.
  
 Gaussian, Inc.
 340 Quinnipiac St., Bldg. 40, Wallingford CT 06492
  
  
 ---------------------------------------------------------------
 Warning -- This program may not be used in any manner that
 competes with the business of Gaussian, Inc. or will provide
 assistance to any competitor of Gaussian, Inc.  The licensee
 of this program is prohibited from giving any competitor of
 Gaussian, Inc. access to this program.  By using this program,
 the user acknowledges that Gaussian, Inc. is engaged in the
 business of creating and licensing software in the field of
 computational chemistry and represents and warrants to the
 licensee that it is not a competitor of Gaussian, Inc. and that
 it will not use this program in any manner prohibited above.
 ---------------------------------------------------------------
  

 Cite this work as:
 Gaussian 16, Revision B.01,
 M. J. Frisch, G. W. Trucks, H. B. Schlegel, G. E. Scuseria, 
 M. A. Robb, J. R. Cheeseman, G. Scalmani, V. Barone, 
 G. A. Petersson, H. Nakatsuji, X. Li, M. Caricato, A. V. Marenich, 
 J. Bloino, B. G. Janesko, R. Gomperts, B. Mennucci, H. P. Hratchian, 
 J. V. Ortiz, A. F. Izmaylov, J. L. Sonnenberg, D. Williams-Young, 
 F. Ding, F. Lipparini, F. Egidi, J. Goings, B. Peng, A. Petrone, 
 T. Henderson, D. Ranasinghe, V. G. Zakrzewski, J. Gao, N. Rega, 
 G. Zheng, W. Liang, M. Hada, M. Ehara, K. Toyota, R. Fukuda, 
 J. Hasegawa, M. Ishida, T. Nakajima, Y. Honda, O. Kitao, H. Nakai, 
 T. Vreven, K. Throssell, J. A. Montgomery, Jr., J. E. Peralta, 
 F. Ogliaro, M. J. Bearpark, J. J. Heyd, E. N. Brothers, K. N. Kudin, 
 V. N. Staroverov, T. A. Keith, R. Kobayashi, J. Normand, 
 K. Raghavachari, A. P. Rendell, J. C. Burant, S. S. Iyengar, 
 J. Tomasi, M. Cossi, J. M. Millam, M. Klene, C. Adamo, R. Cammi, 
 J. W. Ochterski, R. L. Martin, K. Morokuma, O. Farkas, 
 J. B. Foresman, and D. J. Fox, Gaussian, Inc., Wallingford CT, 2016.
 
 ******************************************
 Gaussian 16:  ES64L-G16RevB.01 20-Dec-2017
                30-May-2024 
 ******************************************
 %nprocshared=8
 Will use up to    8 processors via shared memory.
 ----------------------------------------------
 # nmr=giao hf/sto-3g pop=nbo geom=connectivity
 ----------------------------------------------
 1/38=1,57=2,172=1/1;
 2/12=2,17=6,18=5,40=1/2;
 3/6=3,11=9,25=1,30=1/1,2,3,8;
 4//1;
 5/5=2,38=5/2;
 8/6=1,10=90,11=11/1;
 10/13=100,45=16/2;
 6/7=2,8=2,9=2,10=2,28=1,40=1,64=1/1,7;
 99/9=1/99;
 -----------------
 Pleiokomenine_C_2
 -----------------
 Symbolic Z-matrix:
 Charge =  0 Multiplicity = 1
 C                     0.        0.        0. 
 C                     1.4015    0.        0. 
 C                     2.0916    1.23      0. 
 C                     1.4031    2.4514   -0.0081 
 C                     0.0193    2.4421    0.0019 
 C                    -0.6643    1.2153    0.0352 
 N                    -0.8681    3.551    -0.0054 
 C                    -2.136     1.4868    0.2157 
 C                    -2.1555    2.933    -0.4154 
 C                    -3.183     0.6086   -0.4818 
 C                    -2.1948    2.7976   -1.999 
 C                    -3.4648    2.0712   -2.4632 
 C                    -4.2115    1.5238   -1.2299 
 N                    -3.7263   -0.242     0.5838 
 C                    -4.9742   -0.9162    0.2509 
 C                    -6.0249   -0.0444   -0.4364 
 C                    -5.438     0.6957   -1.6385 
 C                    -2.4233    1.3041    1.7278 
 C                    -3.7316    0.5305    1.8169 
 C                    -4.6468    2.7892   -0.4143 
 C                    -3.4407    3.7049   -0.0691 
 C                    -3.5379    4.2818    1.3321 
 O                    -4.2561    3.8466    2.2238 
 O                    -2.7693    5.4011    1.4458 
 C                    -2.7785    5.9883    2.7468 
 C                    -0.3823    4.7717   -0.6303 
 C                     2.1603   -1.3071    0.1071 
 C                     2.3587   -1.7502    1.5425 
 C                     1.253    -2.134     2.3145 
 C                     3.6447   -1.7586    2.1247 
 C                     3.8371   -2.1103    3.4695 
 C                     2.7335   -2.429     4.2383 
 C                     1.4528   -2.4537    3.6453 
 N                     2.6682   -2.7007    5.633 
 C                     0.4652   -2.9168    4.6911 
 C                     1.2544   -2.3634    5.9292 
 C                    -0.95     -2.3716    4.7743 
 C                     1.1454   -0.7508    5.9614 
 C                    -0.3055   -0.272     5.8672 
 C                    -1.2394   -1.4858    5.9939 
 N                    -1.8646   -3.5861    4.7611 
 C                    -3.2399   -3.1149    4.4217 
 C                    -3.7206   -2.1757    5.5464 
 C                    -2.7243   -1.0528    5.9185 
 C                     0.2625   -4.4234    4.3629 
 C                    -1.1703   -4.4812    3.8025 
 C                    -0.8279   -2.1736    7.3412 
 C                     0.6305   -2.7673    7.2844 
 C                     0.7288   -4.234     7.6763 
 O                     1.5668   -5.0264    7.2659 
 O                    -0.1457   -4.5184    8.6865 
 C                    -0.1594   -5.8916    9.072 
 C                     3.7543   -2.2478    6.479 
 O                    -1.9414   -4.2841    5.9416 
 H                    -0.5629   -0.9277    0.0325 
 H                     3.1794    1.2411    0.027 
 H                     1.9609    3.3807    0.0005 
 H                    -2.7082   -0.0586   -1.214 
 H                    -2.1592    3.7875   -2.472 
 H                    -1.3178    2.2618   -2.3831 
 H                    -4.1041    2.7602   -3.0294 
 H                    -3.1949    1.2641   -3.1556 
 H                    -4.7296   -1.7476   -0.423 
 H                    -5.4055   -1.3841    1.1444 
 H                    -6.8537   -0.6777   -0.7742 
 H                    -6.4518    0.6653    0.2805 
 H                    -5.1537   -0.04     -2.4021 
 H                    -6.206     1.3344   -2.0906 
 H                    -1.6508    0.6844    2.2071 
 H                    -2.4345    2.2306    2.3007 
 H                    -3.7359   -0.1237    2.6949 
 H                    -4.5898    1.1977    1.9056 
 H                    -5.2205    2.5142    0.4709 
 H                    -5.3518    3.3774   -1.0196 
 H                    -3.522     4.584    -0.7269 
 H                    -2.4285    5.2709    3.4958 
 H                    -3.7807    6.3513    2.9944 
 H                    -2.0933    6.8404    2.7384 
 H                     0.0186    4.5883   -1.6336 
 H                     0.4016    5.2295   -0.0176 
 H                    -1.187     5.5077   -0.7208 
 H                     1.6262   -2.0943   -0.4412 
 H                     3.1283   -1.2083   -0.4007 
 H                     0.2595   -2.1693    1.8837 
 H                     4.5118   -1.4747    1.5319 
 H                     4.8344   -2.0977    3.8931 
 H                    -1.184    -1.8252    3.8482 
 H                     1.7238   -0.2608    5.1688 
 H                     1.5899   -0.3762    6.894 
 H                    -0.5069    0.4698    6.6498 
 H                    -0.4616    0.2405    4.909 
 H                    -3.8727   -4.005     4.3419 
 H                    -3.1923   -2.6112    3.4508 
 H                    -3.9196   -2.7676    6.4486 
 H                    -4.6793   -1.7291    5.2581 
 H                    -3.0331   -0.5895    6.8634 
 H                    -2.8237   -0.2725    5.1517 
 H                     0.9673   -4.8448    3.6367 
 H                     0.3222   -5.051     5.2513 
 H                    -1.6228   -5.4759    3.8468 
 H                    -1.2647   -4.0467    2.8023 
 H                    -1.5741   -2.8999    7.6686 
 H                    -0.8465   -1.4126    8.1355 
 H                     1.2022   -2.2724    8.0844 
 H                    -0.9607   -6.0301    9.8032 
 H                    -0.3646   -6.5353    8.2106 
 H                     0.7901   -6.1635    9.5431 
 H                     3.5429   -2.479     7.5277 
 H                     4.6848   -2.7652    6.2221 
 H                     3.9195   -1.1683    6.394 
 
 Stoichiometry    C45H56N4O5
 Framework group  C1[X(C45H56N4O5)]
 Deg. of freedom   324
 Full point group                 C1      NOp   1
 Largest Abelian subgroup         C1      NOp   1
 Largest concise Abelian subgroup C1      NOp   1
                         Standard orientation:                         
 ---------------------------------------------------------------------
 Center     Atomic      Atomic             Coordinates (Angstroms)
 Number     Number       Type             X           Y           Z
 ---------------------------------------------------------------------
      1          6           0       -1.784979    1.875184   -1.497948
      2          6           0       -1.279104    3.179469   -1.413494
      3          6           0       -1.817149    4.067910   -0.459388
      4          6           0       -2.852793    3.674137    0.399856
      5          6           0       -3.339543    2.381399    0.316248
      6          6           0       -2.778611    1.489446   -0.612855
      7          7           0       -4.374444    1.779758    1.080578
      8          6           0       -3.361126    0.118880   -0.379576
      9          6           0       -4.721775    0.583556    0.270712
     10          6           0       -3.650199   -0.817607   -1.559991
     11          6           0       -5.723569    1.005012   -0.889654
     12          6           0       -6.032017   -0.180091   -1.815088
     13          6           0       -5.114604   -1.362390   -1.442581
     14          7           0       -2.579098   -1.819931   -1.512159
     15          6           0       -2.823904   -3.014242   -2.309852
     16          6           0       -4.227305   -3.606999   -2.185375
     17          6           0       -5.304550   -2.544401   -2.403714
     18          6           0       -2.322153   -0.648292    0.477366
     19          6           0       -2.238880   -2.047990   -0.115893
     20          6           0       -5.528244   -1.764058    0.014639
     21          6           0       -5.444729   -0.564074    0.997193
     22          6           0       -4.898476   -0.968310    2.355067
     23          8           0       -4.274308   -1.996977    2.584407
     24          8           0       -5.260213   -0.063804    3.307707
     25          6           0       -4.756759   -0.353386    4.611612
     26          6           0       -5.404189    2.667646    1.598159
     27          6           0       -0.096084    3.591183   -2.265969
     28          6           0        1.232815    3.247393   -1.624167
     29          6           0        1.603021    1.905062   -1.459982
     30          6           0        2.097320    4.264152   -1.164107
     31          6           0        3.304102    3.960829   -0.515362
     32          6           0        3.631234    2.634464   -0.304890
     33          6           0        2.782498    1.619320   -0.796401
     34          7           0        4.727653    2.092043    0.421000
     35          6           0        3.431816    0.287146   -0.501084
     36          6           0        4.202415    0.753088    0.783850
     37          6           0        2.628537   -0.946244   -0.126323
     38          6           0        3.152933    0.964579    1.995153
     39          6           0        2.258918   -0.260981    2.200031
     40          6           0        2.784544   -1.411882    1.327864
     41          7           0        3.066673   -2.036467   -1.091274
     42          6           0        2.038475   -3.118075   -1.051226
     43          6           0        2.026882   -3.721981    0.367676
     44          6           0        1.920319   -2.684010    1.509270
     45          6           0        4.100159   -0.102527   -1.850202
     46          6           0        3.239820   -1.275833   -2.353663
     47          6           0        4.287193   -1.579346    1.742132
     48          6           0        5.155013   -0.323548    1.351624
     49          6           0        6.394959   -0.645715    0.531136
     50          8           0        6.926131    0.101268   -0.280308
     51          8           0        6.946592   -1.825957    0.942069
     52          6           0        8.081934   -2.231678    0.179925
     53          6           0        5.403747    2.934292    1.387416
     54          8           0        4.286446   -2.609303   -0.825388
     55          1           0       -1.372431    1.155675   -2.198413
     56          1           0       -1.413292    5.074206   -0.367572
     57          1           0       -3.240324    4.376629    1.128648
     58          1           0       -3.548544   -0.284986   -2.515338
     59          1           0       -6.665072    1.381194   -0.468989
     60          1           0       -5.324690    1.831597   -1.490816
     61          1           0       -7.087788   -0.463675   -1.720566
     62          1           0       -5.887793    0.121645   -2.859994
     63          1           0       -2.660712   -2.746582   -3.361955
     64          1           0       -2.074032   -3.783008   -2.086281
     65          1           0       -4.350334   -4.401593   -2.930741
     66          1           0       -4.349247   -4.081848   -1.205828
     67          1           0       -5.249120   -2.193159   -3.442329
     68          1           0       -6.297186   -2.992780   -2.278066
     69          1           0       -1.321601   -0.200255    0.384251
     70          1           0       -2.530473   -0.648765    1.546639
     71          1           0       -1.226173   -2.451918   -0.015157
     72          1           0       -2.915452   -2.740281    0.386615
     73          1           0       -4.958848   -2.624190    0.367196
     74          1           0       -6.569747   -2.116983    0.004309
     75          1           0       -6.482882   -0.262249    1.205201
     76          1           0       -3.663231   -0.400721    4.600663
     77          1           0       -5.182843   -1.289259    4.985875
     78          1           0       -5.060433    0.457424    5.279454
     79          1           0       -5.822720    3.311386    0.816240
     80          1           0       -4.998573    3.301109    2.394200
     81          1           0       -6.227042    2.093813    2.035261
     82          1           0       -0.157048    3.104527   -3.248328
     83          1           0       -0.154383    4.667379   -2.473454
     84          1           0        0.974765    1.105385   -1.833731
     85          1           0        1.826485    5.309538   -1.297113
     86          1           0        3.943371    4.761704   -0.163033
     87          1           0        1.566172   -0.770931   -0.353517
     88          1           0        2.510461    1.843754    1.864225
     89          1           0        3.706295    1.167529    2.922650
     90          1           0        2.242397   -0.539673    3.260856
     91          1           0        1.224591   -0.010122    1.930946
     92          1           0        2.325549   -3.860706   -1.803003
     93          1           0        1.074689   -2.675517   -1.323047
     94          1           0        2.945859   -4.302046    0.519060
     95          1           0        1.199463   -4.436465    0.448702
     96          1           0        2.153356   -3.168121    2.465393
     97          1           0        0.864918   -2.385415    1.570097
     98          1           0        4.131604    0.691504   -2.605327
     99          1           0        5.125999   -0.444755   -1.718929
    100          1           0        3.743098   -1.909626   -3.089302
    101          1           0        2.249188   -0.970301   -2.704946
    102          1           0        4.704743   -2.519469    1.376975
    103          1           0        4.332304   -1.687659    2.836030
    104          1           0        5.587350    0.062481    2.287483
    105          1           0        8.377356   -3.229122    0.517192
    106          1           0        7.835459   -2.287605   -0.885246
    107          1           0        8.918238   -1.546787    0.350028
    108          1           0        6.186799    2.370009    1.903487
    109          1           0        5.896451    3.775382    0.888074
    110          1           0        4.714890    3.330157    2.141475
 ---------------------------------------------------------------------
 Rotational constants (GHZ):           0.0930552           0.0342809           0.0308401
 Standard basis: STO-3G (5D, 7F)
 There are   326 symmetry adapted cartesian basis functions of A   symmetry.
 There are   326 symmetry adapted basis functions of A   symmetry.
   326 basis functions,   978 primitive gaussians,   326 cartesian basis functions
   197 alpha electrons      197 beta electrons
       nuclear repulsion energy      8185.5948930176 Hartrees.
 NAtoms=  110 NActive=  110 NUniq=  110 SFac= 1.00D+00 NAtFMM=   60 NAOKFM=T Big=T
 Integral buffers will be    131072 words long.
 Raffenetti 1 integral format.
 Two-electron integral symmetry is turned on.
 One-electron integrals computed using PRISM.
 NBasis=   326 RedAO= T EigKep=  1.72D-01  NBF=   326
 NBsUse=   326 1.00D-06 EigRej= -1.00D+00 NBFU=   326
 ExpMin= 1.69D-01 ExpMax= 1.31D+02 ExpMxC= 1.31D+02 IAcc=3 IRadAn=         5 AccDes= 0.00D+00
 Harris functional with IExCor=  205 and IRadAn=       5 diagonalized for initial guess.
 HarFok:  IExCor=  205 AccDes= 0.00D+00 IRadAn=         5 IDoV= 1 UseB2=F ITyADJ=14
 ICtDFT=  3500011 ScaDFX=  1.000000  1.000000  1.000000  1.000000
 FoFCou: FMM=F IPFlag=           0 FMFlag=      100000 FMFlg1=        2001
         NFxFlg=           0 DoJE=T BraDBF=F KetDBF=T FulRan=T
         wScrn=  0.000000 ICntrl=       500 IOpCl=  0 I1Cent=   200000004 NGrid=           0
         NMat0=    1 NMatS0=      1 NMatT0=    0 NMatD0=    1 NMtDS0=    0 NMtDT0=    0
 Petite list used in FoFCou.
 Requested convergence on RMS density matrix=1.00D-08 within 128 cycles.
 Requested convergence on MAX density matrix=1.00D-06.
 Requested convergence on             energy=1.00D-06.
 No special actions if energy rises.
 Integral accuracy reduced to 1.0D-05 until final iterations.
 Initial convergence to 1.0D-05 achieved.  Increase integral accuracy.
 SCF Done:  E(RHF) =  -2300.20198790     A.U. after   16 cycles
            NFock= 16  Conv=0.39D-08     -V/T= 2.0093
 Range of M.O.s used for correlation:     1   326
 NBasis=   326 NAE=   197 NBE=   197 NFC=     0 NFV=     0
 NROrb=    326 NOA=   197 NOB=   197 NVA=   129 NVB=   129
          Differentiating once with respect to magnetic field using GIAOs.
          Electric field/nuclear overlap derivatives assumed to be zero.
 FoFCou: FMM=F IPFlag=           0 FMFlag=      100000 FMFlg1=        2001
         NFxFlg=           0 DoJE=F BraDBF=F KetDBF=T FulRan=T
         wScrn=  0.000000 ICntrl=      6100 IOpCl=  0 I1Cent=           7 NGrid=         110
         NMat0=    1 NMatS0=      1 NMatT0=    0 NMatD0=    1 NMtDS0=    0 NMtDT0=    0
 Symmetry not used in FoFCou.
 FoFJK:  IHMeth= 1 ICntrl=    6127 DoSepK=F KAlg= 0 I1Cent=           0 FoldK=F
 IRaf=         1 NMat=       1 IRICut=       1 DoRegI=T DoRafI=F ISym2E= 0 IDoP0=0 IntGTp=1.
          There are     3 degrees of freedom in the 1st order CPHF.  IDoFFX=0 NUNeed=     3.
      3 vectors produced by pass  0 Test12= 8.47D-13 3.33D-08 XBig12= 1.73D+02 2.04D+00.
 AX will form     3 AO Fock derivatives at one time.
      3 vectors produced by pass  1 Test12= 8.47D-13 3.33D-08 XBig12= 7.13D-01 2.46D-01.
      3 vectors produced by pass  2 Test12= 8.47D-13 3.33D-08 XBig12= 1.83D-02 3.74D-02.
      3 vectors produced by pass  3 Test12= 8.47D-13 3.33D-08 XBig12= 4.27D-04 5.98D-03.
      3 vectors produced by pass  4 Test12= 8.47D-13 3.33D-08 XBig12= 1.47D-05 6.98D-04.
      3 vectors produced by pass  5 Test12= 8.47D-13 3.33D-08 XBig12= 2.81D-07 9.97D-05.
      3 vectors produced by pass  6 Test12= 8.47D-13 3.33D-08 XBig12= 1.10D-08 2.43D-05.
      3 vectors produced by pass  7 Test12= 8.47D-13 3.33D-08 XBig12= 3.40D-10 3.26D-06.
      3 vectors produced by pass  8 Test12= 8.47D-13 3.33D-08 XBig12= 5.67D-12 3.46D-07.
      3 vectors produced by pass  9 Test12= 8.47D-13 3.33D-08 XBig12= 1.00D-13 8.16D-08.
 InvSVY:  IOpt=1 It=  1 EMax= 5.33D-15
 Solved reduced A of dimension    30 with     3 vectors.
 Calculating GIAO nuclear magnetic shielding tensors.
 SCF GIAO Magnetic shielding tensor (ppm):
      1  C    Isotropic =   124.8764   Anisotropy =   149.2276
   XX=   153.6120   YX=     2.3085   ZX=    78.0891
   XY=     2.8121   YY=    85.7362   ZY=   -62.3875
   XZ=    59.5546   YZ=   -53.3409   ZZ=   135.2810
   Eigenvalues:    31.5302   118.7375   224.3614
      2  C    Isotropic =   119.4654   Anisotropy =   159.4967
   XX=   116.7001   YX=   -42.2085   ZX=    87.7639
   XY=   -36.8038   YY=   103.4391   ZY=   -24.3977
   XZ=    77.2176   YZ=   -20.1515   ZZ=   138.2569
   Eigenvalues:    40.0189    92.5807   225.7965
      3  C    Isotropic =   119.3883   Anisotropy =   153.9841
   XX=   143.5865   YX=   -58.7139   ZX=    52.5304
   XY=   -51.8012   YY=    54.7576   ZY=   -29.3285
   XZ=    41.7442   YZ=   -36.2164   ZZ=   159.8208
   Eigenvalues:    27.5092   108.6113   222.0444
      4  C    Isotropic =   133.6867   Anisotropy =   143.3533
   XX=   165.7175   YX=    -4.1110   ZX=    64.9016
   XY=   -11.1660   YY=    99.7255   ZY=   -48.3262
   XZ=    65.0961   YZ=   -54.2185   ZZ=   135.6172
   Eigenvalues:    51.9388   119.8658   229.2556
      5  C    Isotropic =   109.3303   Anisotropy =   127.7365
   XX=   117.2729   YX=   -22.6767   ZX=    67.4130
   XY=   -26.7749   YY=    94.4662   ZY=   -16.1966
   XZ=    77.5051   YZ=     1.1805   ZZ=   116.2519
   Eigenvalues:    41.3517    92.1513   194.4880
      6  C    Isotropic =   117.4827   Anisotropy =   141.7853
   XX=   155.6594   YX=   -33.3877   ZX=    52.5128
   XY=   -35.3366   YY=    62.0698   ZY=   -18.5292
   XZ=    55.7568   YZ=   -29.6431   ZZ=   134.7189
   Eigenvalues:    50.1453    90.2965   212.0062
      7  N    Isotropic =   274.5316   Anisotropy =    82.2331
   XX=   301.4062   YX=    26.7472   ZX=   -14.2398
   XY=    47.2963   YY=   267.6380   ZY=   -12.2006
   XZ=   -16.4417   YZ=    -5.1660   ZZ=   254.5507
   Eigenvalues:   243.6921   250.5490   329.3537
      8  C    Isotropic =   196.0375   Anisotropy =    11.8283
   XX=   192.4712   YX=    -7.0966   ZX=    -1.9046
   XY=    -4.9514   YY=   196.8596   ZY=     7.8661
   XZ=    -0.0965   YZ=    -0.0457   ZZ=   198.7817
   Eigenvalues:   188.0443   196.1452   203.9230
      9  C    Isotropic =   181.1151   Anisotropy =    44.8736
   XX=   172.3568   YX=    12.5203   ZX=   -15.4985
   XY=     3.9889   YY=   193.8819   ZY=    19.7977
   XZ=    -3.3090   YZ=    28.3441   ZZ=   177.1065
   Eigenvalues:   152.2774   180.0370   211.0308
     10  C    Isotropic =   190.4332   Anisotropy =    30.2443
   XX=   193.6521   YX=   -14.8239   ZX=     6.8995
   XY=   -11.5445   YY=   200.3164   ZY=     3.7866
   XZ=     4.1588   YZ=     6.4414   ZZ=   177.3310
   Eigenvalues:   172.2588   188.4446   210.5960
     11  C    Isotropic =   213.7936   Anisotropy =    19.7163
   XX=   214.2658   YX=    -3.2397   ZX=    10.0043
   XY=    -4.4567   YY=   210.5601   ZY=     2.6573
   XZ=    11.6167   YZ=    -4.4938   ZZ=   216.5549
   Eigenvalues:   203.7441   210.6990   226.9378
     12  C    Isotropic =   212.7658   Anisotropy =    21.4468
   XX=   210.6172   YX=    -9.3995   ZX=     3.7222
   XY=   -10.9357   YY=   220.2728   ZY=    -1.8907
   XZ=     3.1888   YZ=    -0.0201   ZZ=   207.4073
   Eigenvalues:   202.8321   208.4016   227.0636
     13  C    Isotropic =   213.5449   Anisotropy =     8.7190
   XX=   211.2620   YX=     3.6718   ZX=     1.6730
   XY=     1.3924   YY=   211.8411   ZY=     1.3151
   XZ=     4.9526   YZ=     0.1691   ZZ=   217.5318
   Eigenvalues:   208.4936   212.7836   219.3576
     14  N    Isotropic =   301.8952   Anisotropy =    54.6247
   XX=   278.8437   YX=   -45.4913   ZX=    17.4988
   XY=   -35.9738   YY=   309.6637   ZY=     7.4955
   XZ=    30.4528   YZ=    19.4906   ZZ=   317.1782
   Eigenvalues:   240.8609   326.5130   338.3117
     15  C    Isotropic =   205.2088   Anisotropy =    34.4054
   XX=   200.7679   YX=     4.2080   ZX=    -0.7194
   XY=     4.7498   YY=   212.3162   ZY=    22.0052
   XZ=    -0.2092   YZ=    17.4614   ZZ=   202.5423
   Eigenvalues:   186.4072   201.0735   228.1458
     16  C    Isotropic =   224.1768   Anisotropy =     9.0033
   XX=   228.6762   YX=    -2.8116   ZX=    -0.9141
   XY=    -2.2144   YY=   224.4423   ZY=     0.5564
   XZ=    -0.2158   YZ=     5.6030   ZZ=   219.4119
   Eigenvalues:   217.9186   224.4328   230.1790
     17  C    Isotropic =   215.3455   Anisotropy =    19.5680
   XX=   209.3049   YX=    -0.6396   ZX=     2.2970
   XY=    -3.3520   YY=   221.2092   ZY=    10.8649
   XZ=    -1.4367   YZ=     8.1633   ZZ=   215.5223
   Eigenvalues:   207.2412   210.4044   228.3909
     18  C    Isotropic =   210.3632   Anisotropy =    37.8794
   XX=   211.2711   YX=   -12.6614   ZX=    14.1034
   XY=   -12.8276   YY=   223.6845   ZY=    -0.7259
   XZ=    14.6375   YZ=    -9.7671   ZZ=   196.1340
   Eigenvalues:   187.3180   208.1555   235.6161
     19  C    Isotropic =   199.9734   Anisotropy =    40.6206
   XX=   185.7283   YX=    -5.7844   ZX=    13.5132
   XY=    -9.2144   YY=   193.6079   ZY=     6.4263
   XZ=    18.8578   YZ=     3.5434   ZZ=   220.5839
   Eigenvalues:   175.1564   197.7100   227.0538
     20  C    Isotropic =   212.1383   Anisotropy =    20.7933
   XX=   203.7675   YX=     6.9398   ZX=    -1.8000
   XY=     5.2080   YY=   207.1818   ZY=     3.1469
   XZ=    -3.0245   YZ=     2.5009   ZZ=   225.4656
   Eigenvalues:   198.6733   211.7412   226.0005
     21  C    Isotropic =   209.1093   Anisotropy =     9.5057
   XX=   207.2634   YX=     6.5940   ZX=     3.3532
   XY=     5.0863   YY=   206.9313   ZY=    -8.6075
   XZ=     2.1998   YZ=    -0.2387   ZZ=   213.1331
   Eigenvalues:   199.3505   212.5309   215.4464
     22  C    Isotropic =    96.3053   Anisotropy =    98.3674
   XX=   155.6290   YX=     2.1126   ZX=    -0.7500
   XY=    -3.6230   YY=   148.1641   ZY=   -58.1001
   XZ=   -13.0647   YZ=   -39.5887   ZZ=   -14.8770
   Eigenvalues:   -28.6453   155.6777   161.8836
     23  O    Isotropic =  -134.2112   Anisotropy =   888.6699
   XX=   191.8082   YX=   426.9421   ZX=  -109.9680
   XY=   438.6517   YY=  -321.3446   ZY=   -43.5290
   XZ=  -125.5064   YZ=   -29.9516   ZZ=  -273.0972
   Eigenvalues:  -570.3587  -290.5103   458.2354
     24  O    Isotropic =   283.5590   Anisotropy =   140.0162
   XX=   313.5104   YX=    28.6789   ZX=  -113.6152
   XY=    64.4829   YY=   310.9437   ZY=   163.9035
   XZ=   -54.3199   YZ=    30.2661   ZZ=   226.2230
   Eigenvalues:   116.1469   357.6270   376.9032
     25  C    Isotropic =   197.3669   Anisotropy =    56.9445
   XX=   184.2007   YX=    -2.5861   ZX=    15.2865
   XY=    -1.9268   YY=   178.5546   ZY=    -8.1951
   XZ=    15.2089   YZ=    -8.5109   ZZ=   229.3453
   Eigenvalues:   177.2028   179.5679   235.3299
     26  C    Isotropic =   209.9738   Anisotropy =    42.1568
   XX=   213.7805   YX=   -18.6527   ZX=   -11.7413
   XY=   -18.6790   YY=   211.0135   ZY=    10.1011
   XZ=   -13.1286   YZ=     7.5813   ZZ=   205.1274
   Eigenvalues:   193.0336   198.8095   238.0783
     27  C    Isotropic =   206.5507   Anisotropy =    15.3573
   XX=   216.5155   YX=     1.1723   ZX=    -1.9451
   XY=     1.2540   YY=   201.7948   ZY=    -6.3396
   XZ=    -0.2663   YZ=    -4.3857   ZZ=   201.3418
   Eigenvalues:   196.2008   206.6625   216.7889
     28  C    Isotropic =   121.0911   Anisotropy =   155.7620
   XX=    87.5193   YX=    18.1438   ZX=   -72.4263
   XY=    12.9064   YY=    92.1284   ZY=     2.5263
   XZ=   -77.6705   YZ=     1.4971   ZZ=   183.6254
   Eigenvalues:    42.1835    96.1572   224.9324
     29  C    Isotropic =   128.0944   Anisotropy =   148.6189
   XX=   117.8834   YX=   -28.6299   ZX=   -62.1438
   XY=   -37.2161   YY=    71.7067   ZY=   -24.1945
   XZ=   -56.3271   YZ=   -26.2684   ZZ=   194.6930
   Eigenvalues:    37.0039   120.1056   227.1736
     30  C    Isotropic =   119.5910   Anisotropy =   148.8588
   XX=   127.7333   YX=    22.7366   ZX=   -48.9124
   XY=    23.1893   YY=    37.0322   ZY=    10.0320
   XZ=   -46.0949   YZ=     7.9040   ZZ=   194.0074
   Eigenvalues:    28.8857   111.0571   218.8302
     31  C    Isotropic =   133.7244   Anisotropy =   143.3033
   XX=   124.8932   YX=   -28.6643   ZX=   -58.5707
   XY=   -26.0134   YY=    82.6375   ZY=   -14.2297
   XZ=   -63.1824   YZ=   -25.4385   ZZ=   193.6426
   Eigenvalues:    52.1852   119.7281   229.2600
     32  C    Isotropic =   108.0442   Anisotropy =   130.3496
   XX=    85.7536   YX=    13.9756   ZX=   -69.3688
   XY=     0.5192   YY=    88.3713   ZY=     0.3503
   XZ=   -70.2964   YZ=    -1.8796   ZZ=   150.0078
   Eigenvalues:    40.3365    88.8523   194.9440
     33  C    Isotropic =   117.8207   Anisotropy =   141.0819
   XX=   118.3563   YX=    -0.8122   ZX=   -51.8117
   XY=    11.3063   YY=    50.7919   ZY=     7.9963
   XZ=   -49.3987   YZ=     8.3779   ZZ=   184.3139
   Eigenvalues:    48.9305    92.6562   211.8753
     34  N    Isotropic =   272.3874   Anisotropy =    84.5074
   XX=   270.2183   YX=   -15.2305   ZX=    26.3083
   XY=   -30.4000   YY=   267.9643   ZY=   -42.9338
   XZ=    18.7939   YZ=   -31.7658   ZZ=   278.9796
   Eigenvalues:   235.4173   253.0192   328.7256
     35  C    Isotropic =   201.1018   Anisotropy =    17.2536
   XX=   209.7979   YX=     2.0715   ZX=    -3.1497
   XY=     9.3633   YY=   199.0511   ZY=     4.1152
   XZ=     3.2848   YZ=     7.3676   ZZ=   194.4564
   Eigenvalues:   190.0193   200.6819   212.6042
     36  C    Isotropic =   179.2895   Anisotropy =    40.5134
   XX=   179.2639   YX=    21.1978   ZX=     4.4564
   XY=    11.3121   YY=   196.4985   ZY=    -1.0607
   XZ=    18.5136   YZ=   -10.7161   ZZ=   162.1060
   Eigenvalues:   152.3909   179.1791   206.2984
     37  C    Isotropic =   183.5024   Anisotropy =    41.2932
   XX=   169.2082   YX=     1.2671   ZX=   -18.3734
   XY=    -1.4755   YY=   192.6551   ZY=    19.3600
   XZ=   -11.0914   YZ=    16.1206   ZZ=   188.6440
   Eigenvalues:   158.7534   180.7227   211.0312
     38  C    Isotropic =   211.1935   Anisotropy =    22.9726
   XX=   211.7911   YX=    -5.0308   ZX=   -15.0030
   XY=     2.3914   YY=   206.0367   ZY=     0.1353
   XZ=   -10.1489   YZ=    -1.4969   ZZ=   215.7526
   Eigenvalues:   200.6525   206.4194   226.5085
     39  C    Isotropic =   213.0643   Anisotropy =    18.7228
   XX=   211.5657   YX=    -0.0827   ZX=    -3.3930
   XY=    -4.6782   YY=   220.4728   ZY=     8.1358
   XZ=    -2.0192   YZ=     9.2084   ZZ=   207.1545
   Eigenvalues:   202.6550   210.9918   225.5462
     40  C    Isotropic =   211.7043   Anisotropy =    10.3439
   XX=   212.5895   YX=     2.0066   ZX=    -1.9149
   XY=     3.1069   YY=   214.7463   ZY=    -4.2748
   XZ=    -1.1996   YZ=    -5.1381   ZZ=   207.7769
   Eigenvalues:   205.3966   211.1160   218.6002
     41  N    Isotropic =   235.3334   Anisotropy =    24.9272
   XX=   236.7120   YX=   -27.2863   ZX=    11.7159
   XY=    -2.8903   YY=   233.3384   ZY=    10.9637
   XZ=    12.7885   YZ=     3.7891   ZZ=   235.9497
   Eigenvalues:   211.9182   242.1304   251.9515
     42  C    Isotropic =   193.7033   Anisotropy =    50.0871
   XX=   200.5060   YX=    23.2206   ZX=     1.3506
   XY=    28.5889   YY=   201.8428   ZY=    -0.3679
   XZ=    -1.0811   YZ=    -1.5081   ZZ=   178.7610
   Eigenvalues:   175.1064   178.9087   227.0947
     43  C    Isotropic =   219.2836   Anisotropy =     8.4192
   XX=   209.5895   YX=     4.0660   ZX=    -2.9449
   XY=     1.3976   YY=   223.7513   ZY=     0.5355
   XZ=    -0.8394   YZ=    -0.4932   ZZ=   224.5102
   Eigenvalues:   208.8587   224.0958   224.8964
     44  C    Isotropic =   214.9286   Anisotropy =    21.3949
   XX=   213.3787   YX=     7.5592   ZX=    -2.1440
   XY=    10.0002   YY=   224.2941   ZY=     2.2073
   XZ=    -4.1841   YZ=    -0.1012   ZZ=   207.1129
   Eigenvalues:   204.4468   211.1470   229.1918
     45  C    Isotropic =   207.3510   Anisotropy =    33.8429
   XX=   190.3351   YX=     9.1990   ZX=   -16.3839
   XY=     5.0771   YY=   212.8392   ZY=    10.6138
   XZ=   -11.1909   YZ=    14.1957   ZZ=   218.8788
   Eigenvalues:   180.5970   211.5431   229.9130
     46  C    Isotropic =   190.7077   Anisotropy =    51.5878
   XX=   163.9352   YX=    12.9699   ZX=    -6.1221
   XY=     4.5079   YY=   195.3602   ZY=   -21.0822
   XZ=    -8.8295   YZ=   -12.7595   ZZ=   212.8277
   Eigenvalues:   161.4568   185.5668   225.0996
     47  C    Isotropic =   211.7394   Anisotropy =    26.9170
   XX=   228.4773   YX=     5.0453   ZX=     0.4389
   XY=     5.4379   YY=   206.8811   ZY=    -6.4209
   XZ=     2.1782   YZ=    -6.9932   ZZ=   199.8598
   Eigenvalues:   195.3438   210.1903   229.6841
     48  C    Isotropic =   207.2271   Anisotropy =    17.6498
   XX=   214.2440   YX=    -5.6029   ZX=    -0.3682
   XY=    -8.6795   YY=   207.1175   ZY=     2.4364
   XZ=    -3.1903   YZ=     1.2713   ZZ=   200.3197
   Eigenvalues:   199.8467   202.8408   218.9936
     49  C    Isotropic =    98.2356   Anisotropy =    97.1605
   XX=    62.0086   YX=    83.3299   ZX=    21.2353
   XY=   101.6083   YY=    78.2165   ZY=   -21.5152
   XZ=     8.3540   YZ=    -7.4252   ZZ=   154.4817
   Eigenvalues:   -25.0934   156.7909   163.0093
     50  O    Isotropic =  -132.9391   Anisotropy =   879.0861
   XX=  -121.8568   YX=   102.9046   ZX=   345.9523
   XY=   112.5329   YY=  -245.2122   ZY=   361.1308
   XZ=   345.5716   YZ=   376.0530   ZZ=   -31.7484
   Eigenvalues:  -570.5395  -281.3962   453.1183
     51  O    Isotropic =   285.8130   Anisotropy =   142.3913
   XX=   215.9758   YX=    39.6566   ZX=    98.0984
   XY=   -68.3111   YY=   371.1978   ZY=    40.0353
   XZ=   142.1424   YZ=   -46.7143   ZZ=   270.2652
   Eigenvalues:   119.6408   357.0576   380.7405
     52  C    Isotropic =   197.4798   Anisotropy =    57.1980
   XX=   217.0204   YX=   -16.4966   ZX=   -20.8038
   XY=   -16.2050   YY=   183.9372   ZY=     9.9911
   XZ=   -20.9207   YZ=     8.9086   ZZ=   191.4817
   Eigenvalues:   177.0166   179.8109   235.6118
     53  C    Isotropic =   211.0617   Anisotropy =    41.9952
   XX=   210.7661   YX=    12.6336   ZX=    12.4324
   XY=    13.4128   YY=   209.9589   ZY=    15.9463
   XZ=    12.1856   YZ=    17.0310   ZZ=   212.4601
   Eigenvalues:   194.4647   199.6620   239.0585
     54  O    Isotropic =    74.5004   Anisotropy =   408.2218
   XX=   258.3176   YX=  -175.0112   ZX=    27.8644
   XY=  -155.2667   YY=    13.8100   ZY=   -16.5563
   XZ=    49.6603   YZ=   -29.4745   ZZ=   -48.6263
   Eigenvalues:   -69.9917   -53.1553   346.6483
     55  H    Isotropic =    25.5136   Anisotropy =    13.0183
   XX=    28.6779   YX=     5.6513   ZX=    -2.3152
   XY=     5.2046   YY=    26.9505   ZY=    -2.4516
   XZ=    -3.0605   YZ=    -1.7936   ZZ=    20.9124
   Eigenvalues:    20.0234    22.3248    34.1925
     56  H    Isotropic =    25.8921   Anisotropy =     6.8167
   XX=    26.9234   YX=    -0.8029   ZX=    -3.8090
   XY=     0.0868   YY=    27.2927   ZY=     1.3627
   XZ=    -4.9686   YZ=     2.0516   ZZ=    23.4604
   Eigenvalues:    20.2607    26.9791    30.4366
     57  H    Isotropic =    26.6795   Anisotropy =     7.8965
   XX=    26.5398   YX=     3.2038   ZX=    -3.2147
   XY=     3.0754   YY=    30.0867   ZY=     1.7932
   XZ=    -4.0823   YZ=     1.5500   ZZ=    23.4119
   Eigenvalues:    20.0061    28.0884    31.9438
     58  H    Isotropic =    31.4245   Anisotropy =     8.3206
   XX=    29.2740   YX=     1.8336   ZX=    -0.9497
   XY=     1.2746   YY=    30.7316   ZY=    -4.5378
   XZ=    -2.2800   YZ=    -2.2973   ZZ=    34.2680
   Eigenvalues:    28.1815    29.1205    36.9716
     59  H    Isotropic =    32.1562   Anisotropy =    14.0286
   XX=    37.9064   YX=    -5.5887   ZX=    -0.7495
   XY=    -6.2755   YY=    30.6381   ZY=     3.6256
   XZ=     0.7235   YZ=     4.0688   ZZ=    27.9242
   Eigenvalues:    24.1589    30.8011    41.5087
     60  H    Isotropic =    32.8532   Anisotropy =     9.0250
   XX=    30.7514   YX=     2.7897   ZX=     1.4286
   XY=    -0.0491   YY=    36.3062   ZY=    -4.8638
   XZ=     3.5938   YZ=    -3.8257   ZZ=    31.5021
   Eigenvalues:    26.8460    32.8438    38.8699
     61  H    Isotropic =    32.3198   Anisotropy =    15.5773
   XX=    41.9045   YX=     0.7841   ZX=     3.4802
   XY=     0.4181   YY=    28.1808   ZY=     1.4807
   XZ=     3.3706   YZ=     1.4821   ZZ=    26.8741
   Eigenvalues:    25.4748    28.7799    42.7047
     62  H    Isotropic =    32.5361   Anisotropy =    13.7044
   XX=    28.0193   YX=    -0.9226   ZX=     3.4557
   XY=    -1.8919   YY=    29.8902   ZY=    -3.5070
   XZ=     3.7767   YZ=    -2.6241   ZZ=    39.6987
   Eigenvalues:    26.8709    29.0649    41.6723
     63  H    Isotropic =    31.7677   Anisotropy =    13.7082
   XX=    29.3536   YX=     0.9280   ZX=    -3.8677
   XY=     0.4399   YY=    26.9015   ZY=     2.8789
   XZ=    -4.4989   YZ=     1.9978   ZZ=    39.0481
   Eigenvalues:    25.6074    28.7893    40.9066
     64  H    Isotropic =    31.8419   Anisotropy =    14.2251
   XX=    35.5756   YX=    -5.7724   ZX=     1.0102
   XY=    -6.6245   YY=    34.3788   ZY=     3.3335
   XZ=     1.0471   YZ=     2.9410   ZZ=    25.5714
   Eigenvalues:    23.6770    30.5235    41.3253
     65  H    Isotropic =    32.5955   Anisotropy =    17.9031
   XX=    28.5462   YX=     1.4790   ZX=     1.6137
   XY=     1.5240   YY=    38.1790   ZY=     8.6630
   XZ=     1.7745   YZ=     9.1893   ZZ=    31.0614
   Eigenvalues:    24.9180    28.3377    44.5309
     66  H    Isotropic =    32.5155   Anisotropy =    10.0994
   XX=    28.2246   YX=     1.4714   ZX=    -0.9575
   XY=     1.2486   YY=    36.0867   ZY=    -3.9068
   XZ=    -1.0461   YZ=    -4.2677   ZZ=    33.2350
   Eigenvalues:    27.9655    30.3324    39.2484
     67  H    Isotropic =    32.6076   Anisotropy =    13.4225
   XX=    27.9858   YX=    -0.7988   ZX=     3.4065
   XY=    -1.1022   YY=    29.1601   ZY=     0.4636
   XZ=     3.4739   YZ=     0.6023   ZZ=    40.6768
   Eigenvalues:    26.6679    29.5989    41.5559
     68  H    Isotropic =    32.4491   Anisotropy =    15.1765
   XX=    38.8377   YX=     5.6291   ZX=     2.2624
   XY=     5.5485   YY=    31.5491   ZY=     3.4024
   XZ=     1.6629   YZ=     3.1240   ZZ=    26.9606
   Eigenvalues:    25.1916    29.5891    42.5668
     69  H    Isotropic =    32.6958   Anisotropy =    16.8129
   XX=    43.2694   YX=     0.9835   ZX=     2.4544
   XY=     3.4783   YY=    31.4471   ZY=     0.1581
   XZ=     2.4063   YZ=    -2.8272   ZZ=    23.3709
   Eigenvalues:    22.7791    31.4039    43.9044
     70  H    Isotropic =    33.0264   Anisotropy =     8.8704
   XX=    33.3220   YX=    -2.2906   ZX=    -0.9076
   XY=    -0.8188   YY=    26.9705   ZY=    -0.5099
   XZ=    -0.7176   YZ=    -1.2244   ZZ=    38.7867
   Eigenvalues:    26.5238    33.6154    38.9400
     71  H    Isotropic =    32.0221   Anisotropy =    19.6660
   XX=    41.9240   YX=    -6.0885   ZX=     3.3656
   XY=    -5.6720   YY=    29.0141   ZY=    -0.1494
   XZ=     5.3875   YZ=    -1.1291   ZZ=    25.1281
   Eigenvalues:    23.8749    27.0585    45.1327
     72  H    Isotropic =    31.8847   Anisotropy =     7.8189
   XX=    31.4006   YX=     0.6654   ZX=    -0.9761
   XY=     1.6612   YY=    33.1886   ZY=    -4.1107
   XZ=    -0.6909   YZ=    -4.8650   ZZ=    31.0649
   Eigenvalues:    27.5137    31.0431    37.0973
     73  H    Isotropic =    31.4073   Anisotropy =     8.9155
   XX=    28.2984   YX=    -2.4080   ZX=     0.1816
   XY=    -2.6743   YY=    35.3612   ZY=    -2.2436
   XZ=    -0.4592   YZ=    -3.7209   ZZ=    30.5623
   Eigenvalues:    27.0639    29.8070    37.3510
     74  H    Isotropic =    32.1918   Anisotropy =    15.1370
   XX=    38.1897   YX=     6.9854   ZX=    -1.9445
   XY=     6.7240   YY=    30.1719   ZY=     1.3781
   XZ=    -2.7222   YZ=     0.7590   ZZ=    28.2139
   Eigenvalues:    24.8797    29.4126    42.2832
     75  H    Isotropic =    31.1745   Anisotropy =    12.9095
   XX=    37.0304   YX=    -2.3050   ZX=    -4.7296
   XY=    -0.7563   YY=    26.6833   ZY=     2.3497
   XZ=    -4.7485   YZ=     1.7797   ZZ=    29.8096
   Eigenvalues:    25.5770    28.1656    39.7808
     76  H    Isotropic =    30.7056   Anisotropy =     7.6078
   XX=    34.7792   YX=    -0.0776   ZX=     2.5336
   XY=    -0.5133   YY=    25.4236   ZY=    -0.3296
   XZ=     1.3424   YZ=    -0.5607   ZZ=    31.9141
   Eigenvalues:    25.3902    30.9492    35.7775
     77  H    Isotropic =    30.5918   Anisotropy =    11.6212
   XX=    27.0096   YX=     2.1018   ZX=    -2.5927
   XY=     2.7547   YY=    31.3929   ZY=    -4.9607
   XZ=    -2.7400   YZ=    -4.4570   ZZ=    33.3727
   Eigenvalues:    25.8433    27.5928    38.3392
     78  H    Isotropic =    30.5706   Anisotropy =    12.0777
   XX=    26.1624   YX=    -1.4493   ZX=    -1.7318
   XY=    -1.5728   YY=    29.9060   ZY=     4.1794
   XZ=    -2.5208   YZ=     4.7545   ZZ=    35.6435
   Eigenvalues:    25.5761    27.5133    38.6225
     79  H    Isotropic =    31.9324   Anisotropy =    12.3155
   XX=    31.8015   YX=    -5.7153   ZX=     0.3061
   XY=    -6.3147   YY=    35.4147   ZY=    -1.0346
   XZ=     2.0757   YZ=    -1.4664   ZZ=    28.5810
   Eigenvalues:    27.2864    28.3680    40.1428
     80  H    Isotropic =    30.7800   Anisotropy =    14.1658
   XX=    26.7132   YX=     0.8428   ZX=    -1.6480
   XY=     0.5381   YY=    32.9993   ZY=     7.5397
   XZ=    -1.1267   YZ=     7.2429   ZZ=    32.6274
   Eigenvalues:    24.4513    27.6648    40.2238
     81  H    Isotropic =    30.9327   Anisotropy =    10.9512
   XX=    33.1645   YX=     0.4193   ZX=    -7.1325
   XY=    -0.4416   YY=    30.4906   ZY=     0.9946
   XZ=    -6.3984   YZ=     0.3481   ZZ=    29.1431
   Eigenvalues:    24.0519    30.5127    38.2335
     82  H    Isotropic =    30.0495   Anisotropy =     8.1314
   XX=    26.3934   YX=     0.9866   ZX=     0.4694
   XY=     1.4807   YY=    28.7975   ZY=     1.0368
   XZ=     1.4264   YZ=     1.9875   ZZ=    34.9575
   Eigenvalues:    25.8631    28.8149    35.4704
     83  H    Isotropic =    29.9041   Anisotropy =    12.5869
   XX=    27.4343   YX=    -0.2315   ZX=     0.2812
   XY=     0.7347   YY=    37.1513   ZY=    -3.4590
   XZ=    -0.5824   YZ=    -4.2766   ZZ=    25.1268
   Eigenvalues:    23.9885    27.4285    38.2954
     84  H    Isotropic =    26.2248   Anisotropy =    13.3049
   XX=    31.6348   YX=    -4.2510   ZX=     1.7201
   XY=    -4.0269   YY=    27.5256   ZY=    -1.9168
   XZ=     4.2741   YZ=    -2.5738   ZZ=    19.5141
   Eigenvalues:    18.6048    24.9749    35.0948
     85  H    Isotropic =    25.7205   Anisotropy =     6.6771
   XX=    27.9887   YX=     2.2292   ZX=     2.5979
   XY=     1.3658   YY=    27.6327   ZY=    -0.1876
   XZ=     3.0946   YZ=     0.0673   ZZ=    21.5401
   Eigenvalues:    20.3944    26.5952    30.1719
     86  H    Isotropic =    26.5459   Anisotropy =     7.4597
   XX=    26.9219   YX=    -0.2748   ZX=     3.5323
   XY=    -0.3399   YY=    30.8951   ZY=    -1.7143
   XZ=     3.2161   YZ=    -2.0094   ZZ=    21.8208
   Eigenvalues:    19.9254    28.1933    31.5190
     87  H    Isotropic =    31.8569   Anisotropy =    11.8717
   XX=    39.1215   YX=    -0.2679   ZX=     2.4067
   XY=    -1.5104   YY=    30.6350   ZY=    -0.1642
   XZ=     2.9469   YZ=    -2.1475   ZZ=    25.8142
   Eigenvalues:    25.1242    30.6752    39.7714
     88  H    Isotropic =    33.5850   Anisotropy =     8.2477
   XX=    32.6550   YX=    -3.5472   ZX=    -3.8631
   XY=    -4.2385   YY=    36.6902   ZY=     0.6095
   XZ=     0.0651   YZ=    -1.8976   ZZ=    31.4098
   Eigenvalues:    28.8061    32.8654    39.0835
     89  H    Isotropic =    32.3254   Anisotropy =    12.9983
   XX=    28.8609   YX=     3.8303   ZX=     1.6104
   XY=     2.8295   YY=    29.5741   ZY=     4.0495
   XZ=     3.6756   YZ=     3.3721   ZZ=    38.5411
   Eigenvalues:    25.8411    30.1441    40.9909
     90  H    Isotropic =    32.4692   Anisotropy =    14.0990
   XX=    28.3990   YX=     1.4151   ZX=    -3.2492
   XY=     1.3998   YY=    28.0020   ZY=    -1.0734
   XZ=    -2.5484   YZ=    -1.9354   ZZ=    41.0066
   Eigenvalues:    26.7249    28.8142    41.8685
     91  H    Isotropic =    33.4006   Anisotropy =    15.2141
   XX=    43.0650   YX=    -2.1477   ZX=    -0.7262
   XY=    -3.0606   YY=    29.3455   ZY=     1.0217
   XZ=     0.4829   YZ=    -1.2659   ZZ=    27.7911
   Eigenvalues:    27.7721    28.8862    43.5433
     92  H    Isotropic =    30.7941   Anisotropy =    13.4857
   XX=    26.4807   YX=     1.7352   ZX=    -0.7931
   XY=     0.2214   YY=    34.4840   ZY=     6.7142
   XZ=    -0.7946   YZ=     6.5935   ZZ=    31.4177
   Eigenvalues:    25.0562    27.5415    39.7846
     93  H    Isotropic =    31.7634   Anisotropy =    14.5181
   XX=    40.1164   YX=     0.1390   ZX=     4.2165
   XY=     1.1056   YY=    28.2248   ZY=     0.1522
   XZ=     4.4572   YZ=    -0.2406   ZZ=    26.9491
   Eigenvalues:    25.6300    28.2180    41.4422
     94  H    Isotropic =    31.0634   Anisotropy =    14.0817
   XX=    31.4216   YX=    -5.7643   ZX=     1.3370
   XY=    -6.1625   YY=    35.9714   ZY=    -1.6793
   XZ=     1.9269   YZ=    -1.7419   ZZ=    25.7973
   Eigenvalues:    25.3559    27.3832    40.4512
     95  H    Isotropic =    32.2972   Anisotropy =    15.6060
   XX=    33.2340   YX=     7.6039   ZX=    -0.8325
   XY=     6.9819   YY=    36.9443   ZY=    -1.1290
   XZ=    -0.0634   YZ=    -1.1586   ZZ=    26.7133
   Eigenvalues:    26.5118    27.6787    42.7012
     96  H    Isotropic =    32.1878   Anisotropy =    14.3112
   XX=    27.2212   YX=     1.6719   ZX=     0.5804
   XY=     1.6018   YY=    32.2239   ZY=    -6.4764
   XZ=     1.0671   YZ=    -6.7528   ZZ=    37.1183
   Eigenvalues:    25.5925    29.2422    41.7286
     97  H    Isotropic =    32.8103   Anisotropy =    14.7504
   XX=    42.3618   YX=    -0.0374   ZX=    -2.5869
   XY=    -0.0718   YY=    29.3186   ZY=     0.9026
   XZ=    -1.6414   YZ=    -0.0337   ZZ=    26.7506
   Eigenvalues:    26.4077    29.3793    42.6439
     98  H    Isotropic =    32.5837   Anisotropy =    11.2256
   XX=    28.4021   YX=    -0.1838   ZX=    -3.9080
   XY=     2.0087   YY=    33.3346   ZY=    -4.8932
   XZ=    -4.5077   YZ=    -2.6676   ZZ=    36.0144
   Eigenvalues:    26.4470    31.2366    40.0674
     99  H    Isotropic =    31.2822   Anisotropy =    12.6299
   XX=    39.3944   YX=    -2.3338   ZX=    -1.2100
   XY=    -1.0355   YY=    25.7084   ZY=     1.4017
   XZ=    -0.5640   YZ=     1.5512   ZZ=    28.7438
   Eigenvalues:    25.0005    29.1440    39.7022
    100  H    Isotropic =    30.8851   Anisotropy =    14.7832
   XX=    27.3037   YX=    -1.7808   ZX=    -3.5155
   XY=    -0.7688   YY=    28.8409   ZY=     4.5817
   XZ=    -4.8092   YZ=     6.3988   ZZ=    36.5107
   Eigenvalues:    25.2010    26.7137    40.7406
    101  H    Isotropic =    31.4698   Anisotropy =    10.3568
   XX=    33.0274   YX=    -1.3315   ZX=     4.4622
   XY=    -1.4641   YY=    28.3923   ZY=    -1.6774
   XZ=     5.6800   YZ=    -0.3748   ZZ=    32.9898
   Eigenvalues:    27.7494    28.2858    38.3743
    102  H    Isotropic =    29.8844   Anisotropy =    11.4702
   XX=    32.6780   YX=    -4.1253   ZX=     0.6487
   XY=    -4.4389   YY=    33.7174   ZY=    -0.0421
   XZ=     1.9083   YZ=     0.8910   ZZ=    23.2577
   Eigenvalues:    22.9787    29.1432    37.5312
    103  H    Isotropic =    31.8583   Anisotropy =    14.1985
   XX=    29.6630   YX=     0.0346   ZX=     3.1935
   XY=    -0.3937   YY=    27.7101   ZY=    -4.8002
   XZ=     4.1199   YZ=    -5.4579   ZZ=    38.2018
   Eigenvalues:    25.2161    29.0348    41.3239
    104  H    Isotropic =    31.4679   Anisotropy =    12.8934
   XX=    31.7073   YX=     1.8746   ZX=     7.0470
   XY=     0.4773   YY=    28.9914   ZY=     2.9086
   XZ=     6.2895   YZ=     1.9417   ZZ=    33.7050
   Eigenvalues:    25.7868    28.5533    40.0635
    105  H    Isotropic =    30.6317   Anisotropy =    12.5081
   XX=    31.3187   YX=    -5.7570   ZX=     0.7709
   XY=    -5.2792   YY=    34.6453   ZY=    -2.0366
   XZ=     0.3677   YZ=    -1.3822   ZZ=    25.9312
   Eigenvalues:    25.5230    27.4017    38.9705
    106  H    Isotropic =    30.5501   Anisotropy =     7.3239
   XX=    30.7783   YX=    -2.1121   ZX=    -0.6171
   XY=    -2.5683   YY=    26.7185   ZY=     1.9341
   XZ=    -1.0421   YZ=     3.0720   ZZ=    34.1536
   Eigenvalues:    25.2089    31.0087    35.4327
    107  H    Isotropic =    30.5965   Anisotropy =    11.8195
   XX=    38.0329   YX=     1.7978   ZX=     0.6021
   XY=     2.3624   YY=    28.2815   ZY=     0.5637
   XZ=     0.1996   YZ=     0.3646   ZZ=    25.4751
   Eigenvalues:    25.4000    27.9133    38.4762
    108  H    Isotropic =    31.5461   Anisotropy =    12.1368
   XX=    34.8078   YX=     0.7573   ZX=     6.9991
   XY=     0.1431   YY=    31.3363   ZY=     0.2719
   XZ=     7.6000   YZ=     0.2755   ZZ=    28.4942
   Eigenvalues:    23.6980    31.3029    39.6372
    109  H    Isotropic =    30.8369   Anisotropy =    15.2856
   XX=    31.3359   YX=     7.3559   ZX=     0.4893
   XY=     6.8593   YY=    35.7062   ZY=    -2.0532
   XZ=     0.9907   YZ=    -1.6254   ZZ=    25.4686
   Eigenvalues:    24.0229    27.4605    41.0273
    110  H    Isotropic =    32.0484   Anisotropy =    11.2163
   XX=    29.2344   YX=     0.8145   ZX=    -1.8573
   XY=     0.3672   YY=    32.9319   ZY=     5.9310
   XZ=    -0.0095   YZ=     6.1486   ZZ=    33.9788
   Eigenvalues:    26.9037    29.7155    39.5259
 End of Minotr F.D. properties file   721 does not exist.
 End of Minotr F.D. properties file   722 does not exist.
 End of Minotr F.D. properties file   788 does not exist.
 Hyperfine terms turned off by default for NAtoms > 100.

 **********************************************************************

            Population analysis using the SCF Density.

 **********************************************************************

 Orbital symmetries:
       Occupied  (A) (A) (A) (A) (A) (A) (A) (A) (A) (A) (A) (A)
                 (A) (A) (A) (A) (A) (A) (A) (A) (A) (A) (A) (A)
                 (A) (A) (A) (A) (A) (A) (A) (A) (A) (A) (A) (A)
                 (A) (A) (A) (A) (A) (A) (A) (A) (A) (A) (A) (A)
                 (A) (A) (A) (A) (A) (A) (A) (A) (A) (A) (A) (A)
                 (A) (A) (A) (A) (A) (A) (A) (A) (A) (A) (A) (A)
                 (A) (A) (A) (A) (A) (A) (A) (A) (A) (A) (A) (A)
                 (A) (A) (A) (A) (A) (A) (A) (A) (A) (A) (A) (A)
                 (A) (A) (A) (A) (A) (A) (A) (A) (A) (A) (A) (A)
                 (A) (A) (A) (A) (A) (A) (A) (A) (A) (A) (A) (A)
                 (A) (A) (A) (A) (A) (A) (A) (A) (A) (A) (A) (A)
                 (A) (A) (A) (A) (A) (A) (A) (A) (A) (A) (A) (A)
                 (A) (A) (A) (A) (A) (A) (A) (A) (A) (A) (A) (A)
                 (A) (A) (A) (A) (A) (A) (A) (A) (A) (A) (A) (A)
                 (A) (A) (A) (A) (A) (A) (A) (A) (A) (A) (A) (A)
                 (A) (A) (A) (A) (A) (A) (A) (A) (A) (A) (A) (A)
                 (A) (A) (A) (A) (A)
       Virtual   (A) (A) (A) (A) (A) (A) (A) (A) (A) (A) (A) (A)
                 (A) (A) (A) (A) (A) (A) (A) (A) (A) (A) (A) (A)
                 (A) (A) (A) (A) (A) (A) (A) (A) (A) (A) (A) (A)
                 (A) (A) (A) (A) (A) (A) (A) (A) (A) (A) (A) (A)
                 (A) (A) (A) (A) (A) (A) (A) (A) (A) (A) (A) (A)
                 (A) (A) (A) (A) (A) (A) (A) (A) (A) (A) (A) (A)
                 (A) (A) (A) (A) (A) (A) (A) (A) (A) (A) (A) (A)
                 (A) (A) (A) (A) (A) (A) (A) (A) (A) (A) (A) (A)
                 (A) (A) (A) (A) (A) (A) (A) (A) (A) (A) (A) (A)
                 (A) (A) (A) (A) (A) (A) (A) (A) (A) (A) (A) (A)
                 (A) (A) (A) (A) (A) (A) (A) (A) (A)
 The electronic state is 1-A.
 Alpha  occ. eigenvalues --  -20.30905 -20.28394 -20.24886 -20.22407 -19.91912
 Alpha  occ. eigenvalues --  -15.47947 -15.33808 -15.33246 -15.31166 -11.16810
 Alpha  occ. eigenvalues --  -11.14618 -11.10794 -11.09743 -11.09396 -11.09128
 Alpha  occ. eigenvalues --  -11.08965 -11.08628 -11.08453 -11.08169 -11.07816
 Alpha  occ. eigenvalues --  -11.07501 -11.07360 -11.06750 -11.06704 -11.06193
 Alpha  occ. eigenvalues --  -11.06086 -11.06017 -11.05800 -11.05737 -11.05660
 Alpha  occ. eigenvalues --  -11.05499 -11.04974 -11.04737 -11.04552 -11.04522
 Alpha  occ. eigenvalues --  -11.04516 -11.04462 -11.04357 -11.04293 -11.04253
 Alpha  occ. eigenvalues --  -11.04225 -11.03904 -11.03423 -11.02980 -11.02272
 Alpha  occ. eigenvalues --  -11.02164 -11.02006 -11.01958 -11.01931 -11.01772
 Alpha  occ. eigenvalues --  -11.01748 -11.01741 -11.01580 -11.01312  -1.38123
 Alpha  occ. eigenvalues --   -1.35637  -1.29325  -1.27945  -1.25380  -1.21780
 Alpha  occ. eigenvalues --   -1.20644  -1.19312  -1.10308  -1.10008  -1.08978
 Alpha  occ. eigenvalues --   -1.07614  -1.05680  -1.05227  -1.02601  -1.01057
 Alpha  occ. eigenvalues --   -0.99306  -0.98619  -0.98557  -0.97431  -0.97167
 Alpha  occ. eigenvalues --   -0.96314  -0.94990  -0.94939  -0.94129  -0.92449
 Alpha  occ. eigenvalues --   -0.91904  -0.91586  -0.89572  -0.89229  -0.87929
 Alpha  occ. eigenvalues --   -0.86548  -0.84894  -0.82882  -0.82255  -0.81001
 Alpha  occ. eigenvalues --   -0.80231  -0.79976  -0.78127  -0.78069  -0.77656
 Alpha  occ. eigenvalues --   -0.77190  -0.74494  -0.74170  -0.72684  -0.72365
 Alpha  occ. eigenvalues --   -0.71490  -0.70289  -0.69751  -0.68163  -0.66277
 Alpha  occ. eigenvalues --   -0.65283  -0.64853  -0.64568  -0.63775  -0.62740
 Alpha  occ. eigenvalues --   -0.62535  -0.62301  -0.61587  -0.61355  -0.61145
 Alpha  occ. eigenvalues --   -0.60957  -0.60117  -0.59041  -0.58936  -0.58554
 Alpha  occ. eigenvalues --   -0.58329  -0.58145  -0.57743  -0.57613  -0.57358
 Alpha  occ. eigenvalues --   -0.57080  -0.56715  -0.56148  -0.55932  -0.55513
 Alpha  occ. eigenvalues --   -0.55003  -0.54890  -0.54647  -0.54372  -0.54278
 Alpha  occ. eigenvalues --   -0.54171  -0.54095  -0.53506  -0.52718  -0.52075
 Alpha  occ. eigenvalues --   -0.51586  -0.51234  -0.50917  -0.50752  -0.50165
 Alpha  occ. eigenvalues --   -0.50087  -0.49860  -0.49240  -0.48955  -0.48663
 Alpha  occ. eigenvalues --   -0.48377  -0.48296  -0.47945  -0.47363  -0.46989
 Alpha  occ. eigenvalues --   -0.46571  -0.46307  -0.45807  -0.45711  -0.45216
 Alpha  occ. eigenvalues --   -0.45054  -0.44808  -0.44631  -0.44367  -0.43982
 Alpha  occ. eigenvalues --   -0.43802  -0.43211  -0.43162  -0.42859  -0.42795
 Alpha  occ. eigenvalues --   -0.42332  -0.41903  -0.41634  -0.41228  -0.40927
 Alpha  occ. eigenvalues --   -0.40330  -0.39823  -0.38813  -0.38566  -0.38038
 Alpha  occ. eigenvalues --   -0.37748  -0.37125  -0.36797  -0.35379  -0.34449
 Alpha  occ. eigenvalues --   -0.33607  -0.32993  -0.32355  -0.31090  -0.30395
 Alpha  occ. eigenvalues --   -0.27592  -0.26999  -0.26607  -0.21331  -0.20272
 Alpha  occ. eigenvalues --   -0.15863  -0.15342
 Alpha virt. eigenvalues --    0.26621   0.26865   0.27499   0.29235   0.30146
 Alpha virt. eigenvalues --    0.32957   0.45860   0.47909   0.47992   0.49194
 Alpha virt. eigenvalues --    0.49480   0.49910   0.50346   0.51655   0.51955
 Alpha virt. eigenvalues --    0.53707   0.54828   0.55482   0.55742   0.55831
 Alpha virt. eigenvalues --    0.56764   0.57270   0.57479   0.58769   0.58976
 Alpha virt. eigenvalues --    0.59390   0.59504   0.59975   0.60446   0.60659
 Alpha virt. eigenvalues --    0.61187   0.61865   0.62066   0.62758   0.62834
 Alpha virt. eigenvalues --    0.63190   0.63438   0.63727   0.64030   0.64523
 Alpha virt. eigenvalues --    0.64639   0.64941   0.65148   0.65493   0.65754
 Alpha virt. eigenvalues --    0.66208   0.66431   0.66674   0.66758   0.66863
 Alpha virt. eigenvalues --    0.67400   0.67652   0.67680   0.68213   0.68522
 Alpha virt. eigenvalues --    0.68676   0.69314   0.69367   0.69527   0.69950
 Alpha virt. eigenvalues --    0.70179   0.70210   0.70411   0.70891   0.70962
 Alpha virt. eigenvalues --    0.71191   0.71430   0.71509   0.72021   0.72532
 Alpha virt. eigenvalues --    0.72993   0.73315   0.73406   0.73595   0.73620
 Alpha virt. eigenvalues --    0.74057   0.74368   0.74516   0.74632   0.74787
 Alpha virt. eigenvalues --    0.74874   0.75496   0.75565   0.76066   0.76306
 Alpha virt. eigenvalues --    0.76475   0.76527   0.76862   0.77360   0.77570
 Alpha virt. eigenvalues --    0.77821   0.78363   0.78672   0.78886   0.79167
 Alpha virt. eigenvalues --    0.79416   0.79659   0.80146   0.80250   0.80491
 Alpha virt. eigenvalues --    0.81038   0.81211   0.81577   0.81812   0.82154
 Alpha virt. eigenvalues --    0.82514   0.83722   0.84005   0.84498   0.84737
 Alpha virt. eigenvalues --    0.85803   0.86023   0.86105   0.87177   0.87487
 Alpha virt. eigenvalues --    0.88414   0.89052   0.90610   0.91361   0.94111
 Alpha virt. eigenvalues --    0.94859   0.95449   0.97999   1.01146   1.03456
 Alpha virt. eigenvalues --    1.10556   1.11320   1.15871   1.16200
          Condensed to atoms (all electrons):
 Mulliken charges:
               1
     1  C   -0.075241
     2  C    0.000910
     3  C   -0.061795
     4  C   -0.089069
     5  C    0.088857
     6  C   -0.013667
     7  N   -0.286787
     8  C    0.017876
     9  C    0.128203
    10  C    0.039583
    11  C   -0.114890
    12  C   -0.105516
    13  C    0.028033
    14  N   -0.291730
    15  C   -0.015823
    16  C   -0.108209
    17  C   -0.102124
    18  C   -0.104716
    19  C   -0.020936
    20  C   -0.110586
    21  C   -0.066608
    22  C    0.319830
    23  O   -0.277480
    24  O   -0.255227
    25  C   -0.055858
    26  C   -0.079040
    27  C   -0.109538
    28  C    0.001468
    29  C   -0.079173
    30  C   -0.061449
    31  C   -0.090044
    32  C    0.095092
    33  C   -0.012549
    34  N   -0.280548
    35  C    0.015002
    36  C    0.134468
    37  C    0.039483
    38  C   -0.116229
    39  C   -0.105401
    40  C    0.040092
    41  N   -0.081448
    42  C   -0.004356
    43  C   -0.097349
    44  C   -0.099360
    45  C   -0.097936
    46  C   -0.004844
    47  C   -0.098726
    48  C   -0.058669
    49  C    0.326851
    50  O   -0.275403
    51  O   -0.255832
    52  C   -0.054052
    53  C   -0.077553
    54  O   -0.461654
    55  H    0.061556
    56  H    0.057011
    57  H    0.058774
    58  H    0.056745
    59  H    0.051272
    60  H    0.054922
    61  H    0.048960
    62  H    0.050816
    63  H    0.053954
    64  H    0.059986
    65  H    0.054795
    66  H    0.050992
    67  H    0.050569
    68  H    0.052219
    69  H    0.059562
    70  H    0.064796
    71  H    0.052353
    72  H    0.054041
    73  H    0.067388
    74  H    0.051904
    75  H    0.065461
    76  H    0.074537
    77  H    0.072677
    78  H    0.077671
    79  H    0.055709
    80  H    0.072174
    81  H    0.076421
    82  H    0.058225
    83  H    0.058016
    84  H    0.055262
    85  H    0.055935
    86  H    0.059961
    87  H    0.055832
    88  H    0.055462
    89  H    0.048861
    90  H    0.052772
    91  H    0.048065
    92  H    0.083823
    93  H    0.059282
    94  H    0.080367
    95  H    0.057510
    96  H    0.058335
    97  H    0.047902
    98  H    0.067477
    99  H    0.095095
   100  H    0.089201
   101  H    0.057438
   102  H    0.102094
   103  H    0.044599
   104  H    0.061790
   105  H    0.074082
   106  H    0.078138
   107  H    0.067262
   108  H    0.072075
   109  H    0.075044
   110  H    0.054498
 Sum of Mulliken charges =  -0.00000
 Mulliken charges with hydrogens summed into heavy atoms:
               1
     1  C   -0.013685
     2  C    0.000910
     3  C   -0.004784
     4  C   -0.030295
     5  C    0.088857
     6  C   -0.013667
     7  N   -0.286787
     8  C    0.017876
     9  C    0.128203
    10  C    0.096328
    11  C   -0.008696
    12  C   -0.005740
    13  C    0.028033
    14  N   -0.291730
    15  C    0.098118
    16  C   -0.002423
    17  C    0.000664
    18  C    0.019643
    19  C    0.085458
    20  C    0.008705
    21  C   -0.001147
    22  C    0.319830
    23  O   -0.277480
    24  O   -0.255227
    25  C    0.169027
    26  C    0.125263
    27  C    0.006703
    28  C    0.001468
    29  C   -0.023911
    30  C   -0.005514
    31  C   -0.030084
    32  C    0.095092
    33  C   -0.012549
    34  N   -0.280548
    35  C    0.015002
    36  C    0.134468
    37  C    0.095316
    38  C   -0.011906
    39  C   -0.004564
    40  C    0.040092
    41  N   -0.081448
    42  C    0.138748
    43  C    0.040528
    44  C    0.006877
    45  C    0.064635
    46  C    0.141794
    47  C    0.047966
    48  C    0.003121
    49  C    0.326851
    50  O   -0.275403
    51  O   -0.255832
    52  C    0.165431
    53  C    0.124064
    54  O   -0.461654
 Electronic spatial extent (au):  <R**2>=          36466.3870
 Charge=             -0.0000 electrons
 Dipole moment (field-independent basis, Debye):
    X=             -5.8239    Y=              0.7144    Z=              1.1674  Tot=              5.9825
 Quadrupole moment (field-independent basis, Debye-Ang):
   XX=           -305.2861   YY=           -301.4983   ZZ=           -290.3597
   XY=              5.7510   XZ=              8.7077   YZ=              7.0615
 Traceless Quadrupole moment (field-independent basis, Debye-Ang):
   XX=             -6.2381   YY=             -2.4503   ZZ=              8.6884
   XY=              5.7510   XZ=              8.7077   YZ=              7.0615
 Octapole moment (field-independent basis, Debye-Ang**2):
  XXX=           -172.6203  YYY=             -0.1996  ZZZ=             59.2876  XYY=             -2.3136
  XXY=              5.1356  XXZ=             83.0911  XZZ=              7.2161  YZZ=            -15.1815
  YYZ=              8.1607  XYZ=              2.2821
 Hexadecapole moment (field-independent basis, Debye-Ang**3):
 XXXX=         -30747.8289 YYYY=          -9091.5787 ZZZZ=          -4800.9751 XXXY=           -222.2550
 XXXZ=            121.0747 YYYX=              1.7963 YYYZ=             64.4466 ZZZX=           -338.4277
 ZZZY=             42.9815 XXYY=          -6782.1700 XXZZ=          -5894.8483 YYZZ=          -2409.6479
 XXYZ=            150.7064 YYXZ=              9.1952 ZZXY=            -34.2495
 N-N= 8.185594893018D+03 E-N=-2.174751821932D+04  KE= 2.279099684606D+03
 ******************************Gaussian NBO Version 3.1******************************
             N A T U R A L   A T O M I C   O R B I T A L   A N D
          N A T U R A L   B O N D   O R B I T A L   A N A L Y S I S
 ******************************Gaussian NBO Version 3.1******************************
       /RESON  / : Allow strongly delocalized NBO set
       /NLMO   / : Form Natural Localized Molecular Orbitals
       /NMR /    : Analyze NMR Sheilding Tensor 

 Analyzing the SCF density

 Job title: Pleiokomenine_C_2                                               

 Storage needed:    355564 in NPA,    438187 in NBO,   2133784 in NLMO ( 104796000 available)
 GSVD:  LWork=     -108884 too small for GESVD, short by      536270 words or      536270 for optimal perf.


 NATURAL POPULATIONS:  Natural atomic orbital occupancies 
                                                          
   NAO  Atom  No  lang   Type(AO)    Occupancy      Energy
 ----------------------------------------------------------
     1    C    1  S      Cor( 1S)     1.99992     -10.94494
     2    C    1  S      Val( 2S)     1.07899      -0.17666
     3    C    1  px     Val( 2p)     0.99272       0.08725
     4    C    1  py     Val( 2p)     0.98288       0.14513
     5    C    1  pz     Val( 2p)     1.00264       0.08799
 
     6    C    2  S      Cor( 1S)     1.99990     -10.95550
     7    C    2  S      Val( 2S)     1.07843      -0.18287
     8    C    2  px     Val( 2p)     0.96012       0.10943
     9    C    2  py     Val( 2p)     0.96568       0.16098
    10    C    2  pz     Val( 2p)     0.98075       0.09864
 
    11    C    3  S      Cor( 1S)     1.99994     -10.94741
    12    C    3  S      Val( 2S)     1.08364      -0.18179
    13    C    3  px     Val( 2p)     0.98567       0.09512
    14    C    3  py     Val( 2p)     0.98247       0.14141
    15    C    3  pz     Val( 2p)     0.98188       0.09783
 
    16    C    4  S      Cor( 1S)     1.99993     -10.94131
    17    C    4  S      Val( 2S)     1.07194      -0.17339
    18    C    4  px     Val( 2p)     1.01777       0.08127
    19    C    4  py     Val( 2p)     0.98080       0.14689
    20    C    4  pz     Val( 2p)     1.01521       0.08549
 
    21    C    5  S      Cor( 1S)     1.99985     -10.98806
    22    C    5  S      Val( 2S)     1.05906      -0.18445
    23    C    5  px     Val( 2p)     0.93041       0.09649
    24    C    5  py     Val( 2p)     0.96814       0.15081
    25    C    5  pz     Val( 2p)     0.93090       0.09356
 
    26    C    6  S      Cor( 1S)     1.99990     -10.94677
    27    C    6  S      Val( 2S)     1.08291      -0.18793
    28    C    6  px     Val( 2p)     1.00064       0.09277
    29    C    6  py     Val( 2p)     0.94950       0.14539
    30    C    6  pz     Val( 2p)     0.99195       0.10241
 
    31    N    7  S      Cor( 1S)     1.99998     -15.27041
    32    N    7  S      Val( 2S)     1.40432      -0.59585
    33    N    7  px     Val( 2p)     1.20203      -0.03667
    34    N    7  py     Val( 2p)     1.15348      -0.02025
    35    N    7  pz     Val( 2p)     1.51534      -0.15805
 
    36    C    8  S      Cor( 1S)     1.99996     -11.00958
    37    C    8  S      Val( 2S)     1.10901      -0.23490
    38    C    8  px     Val( 2p)     0.94146       0.10015
    39    C    8  py     Val( 2p)     0.96259       0.10824
    40    C    8  pz     Val( 2p)     0.96750       0.07823
 
    41    C    9  S      Cor( 1S)     1.99996     -11.05283
    42    C    9  S      Val( 2S)     1.11122      -0.25826
    43    C    9  px     Val( 2p)     0.94668       0.08391
    44    C    9  py     Val( 2p)     0.86728       0.11136
    45    C    9  pz     Val( 2p)     0.90339       0.08996
 
    46    C   10  S      Cor( 1S)     1.99993     -11.02143
    47    C   10  S      Val( 2S)     1.09727      -0.22364
    48    C   10  px     Val( 2p)     0.90885       0.11172
    49    C   10  py     Val( 2p)     0.92607       0.08559
    50    C   10  pz     Val( 2p)     0.99466       0.08023
 
    51    C   11  S      Cor( 1S)     1.99994     -10.98351
    52    C   11  S      Val( 2S)     1.10371      -0.21776
    53    C   11  px     Val( 2p)     1.00302       0.07837
    54    C   11  py     Val( 2p)     0.99176       0.08430
    55    C   11  pz     Val( 2p)     0.98673       0.08028
 
    56    C   12  S      Cor( 1S)     1.99996     -10.98174
    57    C   12  S      Val( 2S)     1.09168      -0.20412
    58    C   12  px     Val( 2p)     1.00289       0.08508
    59    C   12  py     Val( 2p)     0.97897       0.08412
    60    C   12  pz     Val( 2p)     0.99999       0.08600
 
    61    C   13  S      Cor( 1S)     1.99998     -11.00851
    62    C   13  S      Val( 2S)     1.10500      -0.23216
    63    C   13  px     Val( 2p)     0.95325       0.09780
    64    C   13  py     Val( 2p)     0.94859       0.10531
    65    C   13  pz     Val( 2p)     0.94273       0.10344
 
    66    N   14  S      Cor( 1S)     1.99999     -15.24480
    67    N   14  S      Val( 2S)     1.42805      -0.58923
    68    N   14  px     Val( 2p)     1.50200      -0.14215
    69    N   14  py     Val( 2p)     1.18580      -0.01297
    70    N   14  pz     Val( 2p)     1.16376      -0.00297
 
    71    C   15  S      Cor( 1S)     1.99994     -11.01359
    72    C   15  S      Val( 2S)     1.06989      -0.19587
    73    C   15  px     Val( 2p)     0.98367       0.08306
    74    C   15  py     Val( 2p)     0.92369       0.10549
    75    C   15  pz     Val( 2p)     0.98496       0.07611
 
    76    C   16  S      Cor( 1S)     1.99997     -10.98141
    77    C   16  S      Val( 2S)     1.08107      -0.19482
    78    C   16  px     Val( 2p)     0.97938       0.08817
    79    C   16  py     Val( 2p)     0.99234       0.08703
    80    C   16  pz     Val( 2p)     1.02184       0.08262
 
    81    C   17  S      Cor( 1S)     1.99996     -10.98372
    82    C   17  S      Val( 2S)     1.08585      -0.19917
    83    C   17  px     Val( 2p)     0.99800       0.08596
    84    C   17  py     Val( 2p)     0.98317       0.08698
    85    C   17  pz     Val( 2p)     1.00153       0.08454
 
    86    C   18  S      Cor( 1S)     1.99995     -10.98065
    87    C   18  S      Val( 2S)     1.09240      -0.20133
    88    C   18  px     Val( 2p)     1.00114       0.08233
    89    C   18  py     Val( 2p)     0.97235       0.08299
    90    C   18  pz     Val( 2p)     1.00851       0.09361
 
    91    C   19  S      Cor( 1S)     1.99994     -11.00572
    92    C   19  S      Val( 2S)     1.07169      -0.19040
    93    C   19  px     Val( 2p)     1.01741       0.07662
    94    C   19  py     Val( 2p)     0.99459       0.08324
    95    C   19  pz     Val( 2p)     0.88412       0.11140
 
    96    C   20  S      Cor( 1S)     1.99992     -10.98808
    97    C   20  S      Val( 2S)     1.09976      -0.21596
    98    C   20  px     Val( 2p)     1.02605       0.07075
    99    C   20  py     Val( 2p)     0.98067       0.08812
   100    C   20  pz     Val( 2p)     0.96742       0.08078
 
   101    C   21  S      Cor( 1S)     1.99994     -11.01153
   102    C   21  S      Val( 2S)     1.11080      -0.24217
   103    C   21  px     Val( 2p)     1.01246       0.06082
   104    C   21  py     Val( 2p)     0.99334       0.06516
   105    C   21  pz     Val( 2p)     0.96804       0.07794
 
   106    C   22  S      Cor( 1S)     1.99991     -11.11518
   107    C   22  S      Val( 2S)     1.05477      -0.26403
   108    C   22  px     Val( 2p)     0.85769       0.02958
   109    C   22  py     Val( 2p)     0.80447       0.14515
   110    C   22  pz     Val( 2p)     0.87995       0.09115
 
   111    O   23  S      Cor( 1S)     1.99999     -20.10152
   112    O   23  S      Val( 2S)     1.80815      -1.06141
   113    O   23  px     Val( 2p)     1.29669      -0.13441
   114    O   23  py     Val( 2p)     1.35301      -0.13012
   115    O   23  pz     Val( 2p)     1.85384      -0.32627
 
   116    O   24  S      Cor( 1S)     1.99999     -20.21842
   117    O   24  S      Val( 2S)     1.73009      -1.03094
   118    O   24  px     Val( 2p)     1.74943      -0.33616
   119    O   24  py     Val( 2p)     1.62485      -0.28254
   120    O   24  pz     Val( 2p)     1.16245      -0.07468
 
   121    C   25  S      Cor( 1S)     1.99984     -11.04826
   122    C   25  S      Val( 2S)     1.07707      -0.22997
   123    C   25  px     Val( 2p)     1.01260       0.04378
   124    C   25  py     Val( 2p)     1.03481       0.03704
   125    C   25  pz     Val( 2p)     0.84111       0.07422
 
   126    C   26  S      Cor( 1S)     1.99992     -11.01749
   127    C   26  S      Val( 2S)     1.06537      -0.19799
   128    C   26  px     Val( 2p)     0.95611       0.07747
   129    C   26  py     Val( 2p)     0.97885       0.07045
   130    C   26  pz     Val( 2p)     1.01611       0.06011
 
   131    C   27  S      Cor( 1S)     1.99995     -10.98200
   132    C   27  S      Val( 2S)     1.08284      -0.18704
   133    C   27  px     Val( 2p)     0.97977       0.09705
   134    C   27  py     Val( 2p)     1.02421       0.08669
   135    C   27  pz     Val( 2p)     0.99924       0.09233
 
   136    C   28  S      Cor( 1S)     1.99990     -10.95469
   137    C   28  S      Val( 2S)     1.07792      -0.18170
   138    C   28  px     Val( 2p)     0.94768       0.14364
   139    C   28  py     Val( 2p)     0.95783       0.17956
   140    C   28  pz     Val( 2p)     1.00084       0.04973
 
   141    C   29  S      Cor( 1S)     1.99992     -10.94417
   142    C   29  S      Val( 2S)     1.07597      -0.17471
   143    C   29  px     Val( 2p)     0.99352       0.12000
   144    C   29  py     Val( 2p)     0.98240       0.15526
   145    C   29  pz     Val( 2p)     1.01171       0.04135
 
   146    C   30  S      Cor( 1S)     1.99994     -10.94586
   147    C   30  S      Val( 2S)     1.08424      -0.18059
   148    C   30  px     Val( 2p)     0.97591       0.13365
   149    C   30  py     Val( 2p)     0.97417       0.16059
   150    C   30  pz     Val( 2p)     0.99874       0.04624
 
   151    C   31  S      Cor( 1S)     1.99993     -10.93861
   152    C   31  S      Val( 2S)     1.07192      -0.17071
   153    C   31  px     Val( 2p)     0.99914       0.12140
   154    C   31  py     Val( 2p)     0.97388       0.16443
   155    C   31  pz     Val( 2p)     1.04325       0.03480
 
   156    C   32  S      Cor( 1S)     1.99985     -10.98744
   157    C   32  S      Val( 2S)     1.06024      -0.18343
   158    C   32  px     Val( 2p)     0.89091       0.13496
   159    C   32  py     Val( 2p)     0.97242       0.16378
   160    C   32  pz     Val( 2p)     0.95712       0.05299
 
   161    C   33  S      Cor( 1S)     1.99990     -10.94780
   162    C   33  S      Val( 2S)     1.08467      -0.19084
   163    C   33  px     Val( 2p)     0.97881       0.14185
   164    C   33  py     Val( 2p)     0.94745       0.14774
   165    C   33  pz     Val( 2p)     1.01046       0.05009
 
   166    N   34  S      Cor( 1S)     1.99998     -15.26481
   167    N   34  S      Val( 2S)     1.39678      -0.58533
   168    N   34  px     Val( 2p)     1.39635      -0.10059
   169    N   34  py     Val( 2p)     1.08819       0.01204
   170    N   34  pz     Val( 2p)     1.38932      -0.10524
 
   171    C   35  S      Cor( 1S)     1.99996     -11.01032
   172    C   35  S      Val( 2S)     1.10301      -0.23333
   173    C   35  px     Val( 2p)     0.98812       0.05911
   174    C   35  py     Val( 2p)     0.95163       0.11628
   175    C   35  pz     Val( 2p)     0.94670       0.10504
 
   176    C   36  S      Cor( 1S)     1.99996     -11.04770
   177    C   36  S      Val( 2S)     1.11540      -0.25490
   178    C   36  px     Val( 2p)     0.92364       0.08529
   179    C   36  py     Val( 2p)     0.85038       0.12904
   180    C   36  pz     Val( 2p)     0.93185       0.09714
 
   181    C   37  S      Cor( 1S)     1.99991     -11.03066
   182    C   37  S      Val( 2S)     1.10935      -0.24759
   183    C   37  px     Val( 2p)     0.98512       0.07093
   184    C   37  py     Val( 2p)     0.89573       0.08266
   185    C   37  pz     Val( 2p)     0.94121       0.07280
 
   186    C   38  S      Cor( 1S)     1.99993     -10.97628
   187    C   38  S      Val( 2S)     1.10913      -0.21537
   188    C   38  px     Val( 2p)     0.98881       0.08999
   189    C   38  py     Val( 2p)     0.99139       0.09203
   190    C   38  pz     Val( 2p)     0.99536       0.08176
 
   191    C   39  S      Cor( 1S)     1.99996     -10.97737
   192    C   39  S      Val( 2S)     1.09067      -0.19879
   193    C   39  px     Val( 2p)     0.99681       0.09145
   194    C   39  py     Val( 2p)     0.97927       0.08765
   195    C   39  pz     Val( 2p)     1.00809       0.08734
 
   196    C   40  S      Cor( 1S)     1.99998     -11.01031
   197    C   40  S      Val( 2S)     1.09899      -0.22474
   198    C   40  px     Val( 2p)     0.96089       0.10198
   199    C   40  py     Val( 2p)     0.94768       0.10569
   200    C   40  pz     Val( 2p)     0.93361       0.10830
 
   201    N   41  S      Cor( 1S)     1.99999     -15.41545
   202    N   41  S      Val( 2S)     1.39302      -0.65555
   203    N   41  px     Val( 2p)     1.25357      -0.12448
   204    N   41  py     Val( 2p)     1.15530      -0.09638
   205    N   41  pz     Val( 2p)     1.16523      -0.11128
 
   206    C   42  S      Cor( 1S)     1.99992     -11.03575
   207    C   42  S      Val( 2S)     1.09144      -0.23280
   208    C   42  px     Val( 2p)     0.91569       0.08472
   209    C   42  py     Val( 2p)     0.92985       0.06907
   210    C   42  pz     Val( 2p)     1.01419       0.04920
 
   211    C   43  S      Cor( 1S)     1.99995     -10.98989
   212    C   43  S      Val( 2S)     1.08725      -0.20388
   213    C   43  px     Val( 2p)     1.03802       0.07720
   214    C   43  py     Val( 2p)     0.99567       0.08064
   215    C   43  pz     Val( 2p)     0.94264       0.09933
 
   216    C   44  S      Cor( 1S)     1.99994     -10.98543
   217    C   44  S      Val( 2S)     1.09177      -0.20375
   218    C   44  px     Val( 2p)     1.00123       0.08656
   219    C   44  py     Val( 2p)     0.97538       0.09243
   220    C   44  pz     Val( 2p)     0.99431       0.08585
 
   221    C   45  S      Cor( 1S)     1.99993     -10.98390
   222    C   45  S      Val( 2S)     1.09813      -0.20604
   223    C   45  px     Val( 2p)     1.02290       0.08316
   224    C   45  py     Val( 2p)     0.98180       0.08648
   225    C   45  pz     Val( 2p)     0.96417       0.09316
 
   226    C   46  S      Cor( 1S)     1.99993     -11.03038
   227    C   46  S      Val( 2S)     1.09454      -0.23177
   228    C   46  px     Val( 2p)     1.01178       0.06222
   229    C   46  py     Val( 2p)     0.96121       0.05821
   230    C   46  pz     Val( 2p)     0.88665       0.08635
 
   231    C   47  S      Cor( 1S)     1.99991     -10.97223
   232    C   47  S      Val( 2S)     1.10339      -0.19998
   233    C   47  px     Val( 2p)     0.95089       0.10683
   234    C   47  py     Val( 2p)     0.99746       0.10228
   235    C   47  pz     Val( 2p)     1.00880       0.09853
 
   236    C   48  S      Cor( 1S)     1.99994     -11.00136
[...]
 NLMO      Total    Paramagnetic  Diamagnetic   Paramagnetic  Diamagnetic
   89       0.5626       -0.5362       1.0989        -0.4062       0.9688
   90      -0.3544        0.7478      -1.1022        -0.9434       0.5890
   99       1.8278       -1.0241       2.8519         1.2461       0.5817
  102       1.2280       -1.0955       2.3235         0.1510       1.0770
  103       1.3733        0.8564       0.5169        -0.4472       1.8206
  104      26.2101        0.8806      25.3296         0.5523      25.6578
  105       0.2094       -1.1286       1.3380        -0.4438       0.6532
 Sum       31.0569       -1.2997      32.3566        -0.2913      31.3482

 Contributions to Isotropic shielding for atom   94 (    31.0634 ppm):
                         Standard Origin              Atomic Origin
 NLMO      Total    Paramagnetic  Diamagnetic   Paramagnetic  Diamagnetic
   98      -0.1093        0.3683      -0.4776        -1.0103       0.9010
   99      -0.4255        0.1946      -0.6202        -1.2934       0.8678
  102       0.8817        1.8994      -1.0177        -0.0226       0.9043
  105       0.9213        1.6827      -0.7614        -0.2556       1.1769
  106      25.8161       -0.3327      26.1488         0.5717      25.2444
  107       2.0109        2.9558      -0.9449         0.1775       1.8334
  108       0.1012        0.7623      -0.6611        -0.9109       1.0121
  116      -0.2099       -1.4257       1.2158        -0.5416       0.3317
 Sum       28.9864        6.1047      22.8817        -3.2852      32.2716

 Contributions to Isotropic shielding for atom   95 (    32.2972 ppm):
                         Standard Origin              Atomic Origin
 NLMO      Total    Paramagnetic  Diamagnetic   Paramagnetic  Diamagnetic
  102       1.3196        0.5670       0.7525         0.3490       0.9705
  105       1.5183        0.0435       1.4748         0.4092       1.1092
  106       1.8426        3.3950      -1.5524         0.0018       1.8408
  107      26.2403        0.0927      26.1476         0.4156      25.8247
  109       0.0412        0.2513      -0.2101        -1.0873       1.1285
 Sum       30.9620        4.3496      26.6124         0.0883      30.8737

 Contributions to Isotropic shielding for atom   96 (    32.1878 ppm):
                         Standard Origin              Atomic Origin
 NLMO      Total    Paramagnetic  Diamagnetic   Paramagnetic  Diamagnetic
   97       0.9168        1.3664      -0.4496        -0.0546       0.9714
   98      -0.1803        0.7076      -0.8880        -1.1652       0.9848
  105       0.6252        2.5304      -1.9052        -0.4534       1.0786
  106       0.1454       -0.4274       0.5727        -0.9707       1.1161
  108      26.3108       -0.0935      26.4043         0.5609      25.7499
  109       2.3284        0.3596       1.9688         0.5992       1.7292
  117       0.0533       -1.0200       1.0733        -0.8060       0.8592
 Sum       30.1994        3.4231      26.7764        -2.2898      32.4892

 Contributions to Isotropic shielding for atom   97 (    32.8103 ppm):
                         Standard Origin              Atomic Origin
 NLMO      Total    Paramagnetic  Diamagnetic   Paramagnetic  Diamagnetic
   97       1.9046       -1.1978       3.1025         0.9485       0.9562
  102       0.2610       -1.1131       1.3741        -0.2623       0.5232
  105       1.3068       -0.5082       1.8150         0.1698       1.1370
  107      -0.0181       -1.3638       1.3456        -1.0440       1.0258
  108       1.8214        1.0861       0.7353        -0.0218       1.8432
  109      26.3139        0.5398      25.7741         0.2705      26.0434
 Sum       31.5896       -2.5570      34.1466         0.0607      31.5289

 Contributions to Isotropic shielding for atom   98 (    32.5837 ppm):
                         Standard Origin              Atomic Origin
 NLMO      Total    Paramagnetic  Diamagnetic   Paramagnetic  Diamagnetic
   71      -0.9209        0.0571      -0.9780        -1.9283       1.0074
   80      -0.0132        0.9436      -0.9569        -1.0986       1.0853
   85       1.5952       -1.0185       2.6137         0.9640       0.6312
   89      -0.0973        0.1027      -0.2000        -1.0416       0.9443
  111      26.1040        0.1354      25.9686         0.6319      25.4721
  112       1.7337        3.1876      -1.4540        -0.1883       1.9220
  121       0.0582       -1.3428       1.4010        -0.7447       0.8029
  191      -0.3340        0.7226      -1.0565         0.3453      -0.6793
 Sum       28.1256        2.7877      25.3379        -3.0603      31.1860

 Contributions to Isotropic shielding for atom   99 (    31.2822 ppm):
                         Standard Origin              Atomic Origin
 NLMO      Total    Paramagnetic  Diamagnetic   Paramagnetic  Diamagnetic
   83      -0.3792        1.1569      -1.5361        -0.7658       0.3866
   87      -0.2063       -0.0876      -0.1187        -1.0448       0.8385
   89      -0.2488       -0.0514      -0.1974        -1.1337       0.8849
  100      -0.2622       -0.0350      -0.2272        -1.1092       0.8469
  110       0.7893        1.5346      -0.7452         0.0621       0.7272
  111       1.5909        2.8195      -1.2285        -0.3280       1.9189
  112      25.5817       -0.1737      25.7554         0.6775      24.9042
  113       0.0722        0.4920      -0.4198        -0.9287       1.0008
  118       0.6687       -1.0701       1.7388        -0.1597       0.8284
  120       1.3675       -0.6038       1.9713         0.5123       0.8552
  121      -0.2502       -3.4353       3.1850        -1.2868       1.0365
  123       0.3133       -0.8577       1.1711        -0.4456       0.7589
  125       0.0189       -1.4734       1.4923        -0.4339       0.4527
  191      -0.6524        1.4596      -2.1120         0.3110      -0.9635
  195       0.0470       -0.0514       0.0984         1.0670      -1.0201
 Sum       28.4503       -0.3770      28.8273        -5.0060      33.4563

 Contributions to Isotropic shielding for atom  100 (    30.8851 ppm):
                         Standard Origin              Atomic Origin
 NLMO      Total    Paramagnetic  Diamagnetic   Paramagnetic  Diamagnetic
  100      -0.1879        1.0098      -1.1977        -0.9604       0.7725
  101      -0.0440        0.4091      -0.4532        -1.0648       1.0208
  110       0.3004        1.9122      -1.6119        -0.6843       0.9847
  112       0.1149       -0.0480       0.1629        -0.9183       1.0333
  113      25.9403        0.4086      25.5317         1.0585      24.8818
  114       1.7883       -0.1642       1.9525         0.0976       1.6907
  195       0.2775       -0.7047       0.9823         1.0997      -0.8221
 Sum       28.1895        2.8228      25.3667        -1.3721      29.5616

 Contributions to Isotropic shielding for atom  101 (    31.4698 ppm):
                         Standard Origin              Atomic Origin
 NLMO      Total    Paramagnetic  Diamagnetic   Paramagnetic  Diamagnetic
   71      -0.0266       -0.2764       0.2499        -1.1659       1.1394
   85       0.3641       -0.8713       1.2353        -0.4191       0.7832
  100       1.8082       -1.6229       3.4311         1.3520       0.4561
  110       1.1080       -0.9881       2.0961         0.2732       0.8348
  113       1.2581        1.0397       0.2184        -0.5824       1.8405
  114      26.2773        0.9153      25.3620         0.6049      25.6724
 Sum       30.7890       -1.8038      32.5928         0.0627      30.7263

 Contributions to Isotropic shielding for atom  102 (    29.8844 ppm):
                         Standard Origin              Atomic Origin
 NLMO      Total    Paramagnetic  Diamagnetic   Paramagnetic  Diamagnetic
   87       0.3648       -0.8432       1.2080         0.2578       0.1070
   89      -0.4148        0.1247      -0.5394        -1.3125       0.8977
   97      -0.2430        1.2591      -1.5022        -1.0600       0.8169
   98       1.6997       -0.8917       2.5914         0.7870       0.9127
  115       0.2453        2.3808      -2.1356        -0.6308       0.8761
  116      25.3014       -0.0741      25.3755         0.6634      24.6380
  117       1.5233        2.8286      -1.3053        -0.3959       1.9191
  118      -0.3257       -0.0453      -0.2804        -1.2747       0.9490
  122       1.4980       -2.1737       3.6717         0.2891       1.2090
  124       0.1299       -1.1253       1.2552        -0.5500       0.6799
  125       0.1789       -1.2031       1.3820        -0.4665       0.6454
  193      -1.3181        1.2707      -2.5887         0.0911      -1.4092
  194      -0.3895       -1.3576       0.9681        -0.8388       0.4493
 Sum       28.2502        0.1500      28.1002        -4.4407      32.6909

 Contributions to Isotropic shielding for atom  103 (    31.8583 ppm):
                         Standard Origin              Atomic Origin
 NLMO      Total    Paramagnetic  Diamagnetic   Paramagnetic  Diamagnetic
   87       0.4169       -0.8971       1.3140         0.1379       0.2790
   94      -0.2961        1.2914      -1.5875        -1.2556       0.9595
   97      -0.1097        1.0620      -1.1716        -0.7163       0.6066
   98       1.8757       -0.8939       2.7696         0.8910       0.9847
  115       0.5643        2.4276      -1.8633        -0.5473       1.1115
  116       1.7670        2.7909      -1.0239        -0.2753       2.0423
  117      26.6720       -0.2388      26.9108         0.5744      26.0976
  118      -0.2678        0.7832      -1.0510        -0.3632       0.0954
  119      -0.1446       -1.0932       0.9485        -1.2834       1.1388
  122       0.7859       -1.2062       1.9922        -0.3314       1.1174
  193      -0.6797        0.4189      -1.0986         0.1771      -0.8568
 Sum       30.5838        4.4447      26.1391        -2.9922      33.5760

 Contributions to Isotropic shielding for atom  104 (    31.4679 ppm):
                         Standard Origin              Atomic Origin
 NLMO      Total    Paramagnetic  Diamagnetic   Paramagnetic  Diamagnetic
   81      -0.6249        1.3784      -2.0033        -1.3179       0.6929
   86      -0.2652        1.2795      -1.5447        -1.3948       1.1296
   87       1.6820        0.1554       1.5266         0.7593       0.9227
  115       1.5661        1.4016       0.1645         0.2939       1.2722
  117      -0.2369        0.4380      -0.6749        -1.3852       1.1483
  118       0.2885        5.1144      -4.8259        -0.8198       1.1084
  119      26.0734       -0.6629      26.7364         0.3703      25.7032
  122       0.5398       -1.3622       1.9020        -0.7994       1.3392
  127      -0.2513       -2.5537       2.3024        -0.7411       0.4898
 Sum       28.7716        5.1886      23.5830        -5.0348      33.8064

 Contributions to Isotropic shielding for atom  105 (    30.6317 ppm):
                         Standard Origin              Atomic Origin
 NLMO      Total    Paramagnetic  Diamagnetic   Paramagnetic  Diamagnetic
  120      -0.6501        0.3146      -0.9647        -1.2783       0.6282
  121      -0.1098        1.1002      -1.2099        -1.1539       1.0441
  122      -0.5573        0.4592      -1.0165        -0.5993       0.0419
  123       1.1412        0.5810       0.5602        -0.9467       2.0879
  124      26.1036        0.3680      25.7357         0.8159      25.2877
  125       1.3212        1.1765       0.1447        -0.6790       2.0002
  126       0.5568        3.9595      -3.4027        -1.4170       1.9738
  191       0.2391       -0.7671       1.0062         0.6152      -0.3761
  193       0.9974       -0.9136       1.9109         1.4659      -0.4685
 Sum       29.0421        6.2784      22.7637        -3.1772      32.2193

 Contributions to Isotropic shielding for atom  106 (    30.5501 ppm):
                         Standard Origin              Atomic Origin
 NLMO      Total    Paramagnetic  Diamagnetic   Paramagnetic  Diamagnetic
  120      -0.8888        0.6841      -1.5729        -1.7937       0.9048
  121      -0.4340        1.4469      -1.8809        -1.9775       1.5434
  122      -1.4436        1.5126      -2.9562        -2.3338       0.8902
  123       2.8482       -5.0617       7.9100         1.4449       1.4033
  124       1.4918        1.7411      -0.2493        -0.5442       2.0360
  125      26.0910        1.0114      25.0797         0.9922      25.0989
  126       1.0900        1.8308      -0.7408        -0.7739       1.8639
  191       0.3210       -1.0994       1.4204         1.0731      -0.7520
 Sum       29.0756        2.0657      27.0099        -3.9129      32.9885

 Contributions to Isotropic shielding for atom  107 (    30.5965 ppm):
                         Standard Origin              Atomic Origin
 NLMO      Total    Paramagnetic  Diamagnetic   Paramagnetic  Diamagnetic
  120      -1.3271        0.8659      -2.1930        -2.2157       0.8885
  121      -0.5216        2.1803      -2.7019        -2.0820       1.5604
  122      -2.0140        1.3762      -3.3902        -2.7882       0.7741
  123       1.2835        0.2585       1.0249        -0.2217       1.5052
  124       1.1706        4.5485      -3.3779        -0.8605       2.0311
  125       1.4036        1.2404       0.1633        -0.4675       1.8712
  126      26.6270        0.6325      25.9945         1.2572      25.3699
  191       0.5975       -1.6943       2.2918         1.3648      -0.7673
  192       0.8433        1.0332      -0.1899         1.1039      -0.2606
  193       1.5823       -1.2426       2.8249         1.6309      -0.0486
  194       0.4587        1.0228      -0.5641         0.0336       0.4250
 Sum       30.1038       10.2213      19.8825        -3.2452      33.3490

 Contributions to Isotropic shielding for atom  108 (    31.5461 ppm):
                         Standard Origin              Atomic Origin
 NLMO      Total    Paramagnetic  Diamagnetic   Paramagnetic  Diamagnetic
   76      -0.5209       -0.0142      -0.5067        -1.3600       0.8391
   81      -0.4407        1.0135      -1.4542        -1.1666       0.7260
   82       1.2919       -0.3138       1.6057         0.0817       1.2101
   87      -0.2550        1.1498      -1.4048        -1.1491       0.8941
  121       0.0064       -0.5773       0.5837        -1.0596       1.0660
  127      26.0550        0.1702      25.8848         0.6269      25.4281
  128       1.5092        3.9927      -2.4836        -0.4801       1.9892
  129       1.6439        0.8722       0.7717        -0.1682       1.8121
 Sum       29.2897        6.2930      22.9966        -4.6750      33.9646

 Contributions to Isotropic shielding for atom  109 (    30.8369 ppm):
                         Standard Origin              Atomic Origin
 NLMO      Total    Paramagnetic  Diamagnetic   Paramagnetic  Diamagnetic
   75      -0.5701        0.7334      -1.3035        -1.2802       0.7102
   76      -0.9445        0.2615      -1.2060        -2.2985       1.3540
   79      -0.5258        0.9398      -1.4656        -1.1609       0.6351
   82       1.2418        0.1803       1.0615         0.0324       1.2093
  127       1.5526        3.9407      -2.3882        -0.4155       1.9681
  128      25.9875        0.0976      25.8899         0.6894      25.2982
  129       1.6303        1.2792       0.3510        -0.1690       1.7993
 Sum       28.3717        7.4326      20.9392        -4.6024      32.9741

 Contributions to Isotropic shielding for atom  110 (    32.0484 ppm):
                         Standard Origin              Atomic Origin
 NLMO      Total    Paramagnetic  Diamagnetic   Paramagnetic  Diamagnetic
   76      -0.7633       -0.1142      -0.6490        -1.9458       1.1825
   82       2.0157       -3.1836       5.1993         1.2437       0.7720
   86      -0.2553        0.7719      -1.0271        -1.3276       1.0724
   92      -0.0417        1.1422      -1.1839        -0.8861       0.8443
  127       1.8449        1.7545       0.0904        -0.0579       1.9028
  128       1.8206        2.3168      -0.4961        -0.0812       1.9019
  129      26.5061        0.8123      25.6938         0.7760      25.7300
 Sum       31.1270        3.4997      27.6273        -2.2788      33.4058
 
 1\1\GINC-PCSN02\SP\RHF\STO-3G\C45H56N4O5\ABENIDD\30-May-2024\0\\# nmr=
 giao hf/sto-3g pop=nbo geom=connectivity\\Pleiokomenine_C_2\\0,1\C,0,0
 .,0.,0.\C,0,1.4015,0.,0.\C,0,2.0916,1.23,0.\C,0,1.4031,2.4514,-0.0081\
 C,0,0.0193,2.4421,0.0019\C,0,-0.6643,1.2153,0.0352\N,0,-0.8681,3.551,-
 0.0054\C,0,-2.136,1.4868,0.2157\C,0,-2.1555,2.933,-0.4154\C,0,-3.183,0
 .6086,-0.4818\C,0,-2.1948,2.7976,-1.999\C,0,-3.4648,2.0712,-2.4632\C,0
 ,-4.2115,1.5238,-1.2299\N,0,-3.7263,-0.242,0.5838\C,0,-4.9742,-0.9162,
 0.2509\C,0,-6.0249,-0.0444,-0.4364\C,0,-5.438,0.6957,-1.6385\C,0,-2.42
 33,1.3041,1.7278\C,0,-3.7316,0.5305,1.8169\C,0,-4.6468,2.7892,-0.4143\
 C,0,-3.4407,3.7049,-0.0691\C,0,-3.5379,4.2818,1.3321\O,0,-4.2561,3.846
 6,2.2238\O,0,-2.7693,5.4011,1.4458\C,0,-2.7785,5.9883,2.7468\C,0,-0.38
 23,4.7717,-0.6303\C,0,2.1603,-1.3071,0.1071\C,0,2.3587,-1.7502,1.5425\
 C,0,1.253,-2.134,2.3145\C,0,3.6447,-1.7586,2.1247\C,0,3.8371,-2.1103,3
 .4695\C,0,2.7335,-2.429,4.2383\C,0,1.4528,-2.4537,3.6453\N,0,2.6682,-2
 .7007,5.633\C,0,0.4652,-2.9168,4.6911\C,0,1.2544,-2.3634,5.9292\C,0,-0
 .95,-2.3716,4.7743\C,0,1.1454,-0.7508,5.9614\C,0,-0.3055,-0.272,5.8672
 \C,0,-1.2394,-1.4858,5.9939\N,0,-1.8646,-3.5861,4.7611\C,0,-3.2399,-3.
 1149,4.4217\C,0,-3.7206,-2.1757,5.5464\C,0,-2.7243,-1.0528,5.9185\C,0,
 0.2625,-4.4234,4.3629\C,0,-1.1703,-4.4812,3.8025\C,0,-0.8279,-2.1736,7
 .3412\C,0,0.6305,-2.7673,7.2844\C,0,0.7288,-4.234,7.6763\O,0,1.5668,-5
 .0264,7.2659\O,0,-0.1457,-4.5184,8.6865\C,0,-0.1594,-5.8916,9.072\C,0,
 3.7543,-2.2478,6.479\O,0,-1.9414,-4.2841,5.9416\H,0,-0.5629,-0.9277,0.
 0325\H,0,3.1794,1.2411,0.027\H,0,1.9609,3.3807,0.0005\H,0,-2.7082,-0.0
 586,-1.214\H,0,-2.1592,3.7875,-2.472\H,0,-1.3178,2.2618,-2.3831\H,0,-4
 .1041,2.7602,-3.0294\H,0,-3.1949,1.2641,-3.1556\H,0,-4.7296,-1.7476,-0
 .423\H,0,-5.4055,-1.3841,1.1444\H,0,-6.8537,-0.6777,-0.7742\H,0,-6.451
 8,0.6653,0.2805\H,0,-5.1537,-0.04,-2.4021\H,0,-6.206,1.3344,-2.0906\H,
 0,-1.6508,0.6844,2.2071\H,0,-2.4345,2.2306,2.3007\H,0,-3.7359,-0.1237,
 2.6949\H,0,-4.5898,1.1977,1.9056\H,0,-5.2205,2.5142,0.4709\H,0,-5.3518
 ,3.3774,-1.0196\H,0,-3.522,4.584,-0.7269\H,0,-2.4285,5.2709,3.4958\H,0
 ,-3.7807,6.3513,2.9944\H,0,-2.0933,6.8404,2.7384\H,0,0.0186,4.5883,-1.
 6336\H,0,0.4016,5.2295,-0.0176\H,0,-1.187,5.5077,-0.7208\H,0,1.6262,-2
 .0943,-0.4412\H,0,3.1283,-1.2083,-0.4007\H,0,0.2595,-2.1693,1.8837\H,0
 ,4.5118,-1.4747,1.5319\H,0,4.8344,-2.0977,3.8931\H,0,-1.184,-1.8252,3.
 8482\H,0,1.7238,-0.2608,5.1688\H,0,1.5899,-0.3762,6.894\H,0,-0.5069,0.
 4698,6.6498\H,0,-0.4616,0.2405,4.909\H,0,-3.8727,-4.005,4.3419\H,0,-3.
 1923,-2.6112,3.4508\H,0,-3.9196,-2.7676,6.4486\H,0,-4.6793,-1.7291,5.2
 581\H,0,-3.0331,-0.5895,6.8634\H,0,-2.8237,-0.2725,5.1517\H,0,0.9673,-
 4.8448,3.6367\H,0,0.3222,-5.051,5.2513\H,0,-1.6228,-5.4759,3.8468\H,0,
 -1.2647,-4.0467,2.8023\H,0,-1.5741,-2.8999,7.6686\H,0,-0.8465,-1.4126,
 8.1355\H,0,1.2022,-2.2724,8.0844\H,0,-0.9607,-6.0301,9.8032\H,0,-0.364
 6,-6.5353,8.2106\H,0,0.7901,-6.1635,9.5431\H,0,3.5429,-2.479,7.5277\H,
 0,4.6848,-2.7652,6.2221\H,0,3.9195,-1.1683,6.394\\Version=ES64L-G16Rev
 B.01\State=1-A\HF=-2300.2019879\RMSD=3.874e-09\Dipole=-0.5378137,1.863
 3057,-1.3337113\Quadrupole=1.5844643,-4.1004147,2.5159504,3.9552435,6.
 8613066,6.7442955\PG=C01 [X(C45H56N4O5)]\\@


 LIVE PURE, SPEAK TRUE, RIGHT WRONG, FOLLOW THE KING...
 ELSE, WHEREFORE BORN......
           IDYLLS OF THE KING, TENNYSON
 Job cpu time:       0 days  0 hours 12 minutes  3.7 seconds.
 Elapsed time:       0 days  0 hours  1 minutes 59.9 seconds.
 File lengths (MBytes):  RWF=     67 Int=      0 D2E=      0 Chk=     10 Scr=      1
 Normal termination of Gaussian 16 at Thu May 30 09:27:37 2024.
