 Entering Gaussian System, Link 0=g16
 Input=2_pleiokomenine_2a_c_7.gjf
 Output=2_pleiokomenine_2a_c_7.log
 Initial command:
 /opt/gaussian/g16/l1.exe "/data/abenidd/Elvis/pleiokomenine_C/NMR_HF/2a/2_pleiokomenine_2a_c_7/Gau-28885.inp" -scrdir="/data/abenidd/Elvis/pleiokomenine_C/NMR_HF/2a/2_pleiokomenine_2a_c_7/"
 Entering Link 1 = /opt/gaussian/g16/l1.exe PID=     28887.
  
 Copyright (c) 1988-2017, Gaussian, Inc.  All Rights Reserved.
  
 This is part of the Gaussian(R) 16 program.  It is based on
 the Gaussian(R) 09 system (copyright 2009, Gaussian, Inc.),
 the Gaussian(R) 03 system (copyright 2003, Gaussian, Inc.),
 the Gaussian(R) 98 system (copyright 1998, Gaussian, Inc.),
 the Gaussian(R) 94 system (copyright 1995, Gaussian, Inc.),
 the Gaussian 92(TM) system (copyright 1992, Gaussian, Inc.),
 the Gaussian 90(TM) system (copyright 1990, Gaussian, Inc.),
 the Gaussian 88(TM) system (copyright 1988, Gaussian, Inc.),
 the Gaussian 86(TM) system (copyright 1986, Carnegie Mellon
 University), and the Gaussian 82(TM) system (copyright 1983,
 Carnegie Mellon University). Gaussian is a federally registered
 trademark of Gaussian, Inc.
  
 This software contains proprietary and confidential information,
 including trade secrets, belonging to Gaussian, Inc.
  
 This software is provided under written license and may be
 used, copied, transmitted, or stored only in accord with that
 written license.
  
 The following legend is applicable only to US Government
 contracts under FAR:
  
                    RESTRICTED RIGHTS LEGEND
  
 Use, reproduction and disclosure by the US Government is
 subject to restrictions as set forth in subparagraphs (a)
 and (c) of the Commercial Computer Software - Restricted
 Rights clause in FAR 52.227-19.
  
 Gaussian, Inc.
 340 Quinnipiac St., Bldg. 40, Wallingford CT 06492
  
  
 ---------------------------------------------------------------
 Warning -- This program may not be used in any manner that
 competes with the business of Gaussian, Inc. or will provide
 assistance to any competitor of Gaussian, Inc.  The licensee
 of this program is prohibited from giving any competitor of
 Gaussian, Inc. access to this program.  By using this program,
 the user acknowledges that Gaussian, Inc. is engaged in the
 business of creating and licensing software in the field of
 computational chemistry and represents and warrants to the
 licensee that it is not a competitor of Gaussian, Inc. and that
 it will not use this program in any manner prohibited above.
 ---------------------------------------------------------------
  

 Cite this work as:
 Gaussian 16, Revision B.01,
 M. J. Frisch, G. W. Trucks, H. B. Schlegel, G. E. Scuseria, 
 M. A. Robb, J. R. Cheeseman, G. Scalmani, V. Barone, 
 G. A. Petersson, H. Nakatsuji, X. Li, M. Caricato, A. V. Marenich, 
 J. Bloino, B. G. Janesko, R. Gomperts, B. Mennucci, H. P. Hratchian, 
 J. V. Ortiz, A. F. Izmaylov, J. L. Sonnenberg, D. Williams-Young, 
 F. Ding, F. Lipparini, F. Egidi, J. Goings, B. Peng, A. Petrone, 
 T. Henderson, D. Ranasinghe, V. G. Zakrzewski, J. Gao, N. Rega, 
 G. Zheng, W. Liang, M. Hada, M. Ehara, K. Toyota, R. Fukuda, 
 J. Hasegawa, M. Ishida, T. Nakajima, Y. Honda, O. Kitao, H. Nakai, 
 T. Vreven, K. Throssell, J. A. Montgomery, Jr., J. E. Peralta, 
 F. Ogliaro, M. J. Bearpark, J. J. Heyd, E. N. Brothers, K. N. Kudin, 
 V. N. Staroverov, T. A. Keith, R. Kobayashi, J. Normand, 
 K. Raghavachari, A. P. Rendell, J. C. Burant, S. S. Iyengar, 
 J. Tomasi, M. Cossi, J. M. Millam, M. Klene, C. Adamo, R. Cammi, 
 J. W. Ochterski, R. L. Martin, K. Morokuma, O. Farkas, 
 J. B. Foresman, and D. J. Fox, Gaussian, Inc., Wallingford CT, 2016.
 
 ******************************************
 Gaussian 16:  ES64L-G16RevB.01 20-Dec-2017
                30-May-2024 
 ******************************************
 %nprocshared=8
 Will use up to    8 processors via shared memory.
 ----------------------------------------------
 # nmr=giao hf/sto-3g pop=nbo geom=connectivity
 ----------------------------------------------
 1/38=1,57=2,172=1/1;
 2/12=2,17=6,18=5,40=1/2;
 3/6=3,11=9,25=1,30=1/1,2,3,8;
 4//1;
 5/5=2,38=5/2;
 8/6=1,10=90,11=11/1;
 10/13=100,45=16/2;
 6/7=2,8=2,9=2,10=2,28=1,40=1,64=1/1,7;
 99/9=1/99;
 -----------------
 Pleiokomenine_C_2
 -----------------
 Symbolic Z-matrix:
 Charge =  0 Multiplicity = 1
 C                     0.        0.        0. 
 C                     1.4022    0.        0. 
 C                     2.0956    1.2287    0. 
 C                     1.4105    2.4507    0.004 
 C                     0.0266    2.4438    0.002 
 C                    -0.6625    1.2184    0.0182 
 N                    -0.8546    3.5577   -0.0145 
 C                    -2.1401    1.4959    0.1447 
 C                    -2.1307    2.9488   -0.4731 
 C                    -3.1648    0.6343   -0.6065 
 C                    -2.1133    2.8302   -2.0596 
 C                    -3.3713    2.1216   -2.5783 
 C                    -4.1627    1.5623   -1.3797 
 N                    -3.7556   -0.2217    0.4232 
 C                    -4.9885   -0.8933    0.0386 
 C                    -6.0111   -0.0093   -0.675 
 C                    -5.3774    0.7455   -1.8437 
 C                    -2.4881    1.2985    1.6408 
 C                    -3.7978    0.5218    1.6719 
 C                    -4.6211    2.8176   -0.5614 
 C                    -3.4238    3.7244   -0.1664 
 C                    -3.5685    4.2932    1.2339 
 O                    -4.3229    3.8606    2.0959 
 O                    -2.796     5.4062    1.3834 
 C                    -2.8616    5.9931    2.6829 
 C                    -0.3485    4.7845   -0.6117 
 C                     2.1641   -1.3091    0.0486 
 C                     1.9649   -2.1352    1.3067 
 C                     1.6879   -1.5403    2.5467 
 C                     2.0895   -3.5418    1.2305 
 C                     1.9259   -4.3586    2.3582 
 C                     1.6447   -3.7643    3.5724 
 C                     1.5051   -2.3607    3.6481 
 N                     1.4894   -4.377     4.8446 
 C                     1.0408   -2.0238    5.0476 
 C                     1.7352   -3.2378    5.7589 
 C                     1.4677   -0.7638    5.7782 
 C                     3.3303   -2.9918    5.799 
 C                     3.6835   -1.6237    6.3903 
 C                     2.4098   -0.9875    6.9699 
 N                     0.182    -0.0875    6.2279 
 C                     0.5083    1.327     6.5745 
 C                     1.4818    1.3197    7.771 
 C                     2.7108    0.3969    7.5949 
 C                    -0.4987   -1.8514    4.8855 
 C                    -0.7157   -0.3394    5.0729 
 C                     1.854    -2.0486    7.9807 
 C                     1.3757   -3.3629    7.2572 
 C                    -0.0481   -3.7841    7.5901 
 O                    -0.7933   -4.4184    6.8545 
 O                    -0.3354   -3.509     8.8969 
 C                    -1.6772   -3.8146    9.2717 
 C                     2.0788   -5.6817    5.0668 
 O                    -0.4336   -0.6518    7.3183 
 H                    -0.56     -0.9314    0.037 
 H                     3.1837    1.2394    0.0091 
 H                     1.9701    3.3789    0.0124 
 H                    -2.6649   -0.0258   -1.3285 
 H                    -1.2279    2.2898   -2.417 
 H                    -2.0515    3.8244   -2.5206 
 H                    -3.986     2.8242   -3.1551 
 H                    -3.0837    1.3231   -3.2734 
 H                    -4.7201   -1.716    -0.6368 
 H                    -5.4529   -1.3716    0.9095 
 H                    -6.8284   -0.6354   -1.0521 
 H                    -6.4621    0.6922    0.0352 
 H                    -5.0686    0.0194   -2.607 
 H                    -6.1258    1.3941   -2.3143 
 H                    -1.7342    0.675     2.1425 
 H                    -2.5234    2.2191    2.2221 
 H                    -3.8284   -0.1512    2.5357 
 H                    -4.6579    1.1887    1.7483 
 H                    -5.2214    2.5312    0.3024 
 H                    -5.3058    3.4158   -1.1797 
 H                    -3.4775    4.6083   -0.8206 
 H                    -2.1746    6.8435    2.7052 
 H                    -3.8729    6.3588    2.8861 
 H                    -2.5468    5.2746    3.4463 
 H                     0.0822    4.6118   -1.6045 
 H                     0.4175    5.2336    0.0294 
 H                    -1.1485    5.5235   -0.7182 
 H                     1.8593   -1.8948   -0.8288 
 H                     3.2399   -1.1223   -0.0612 
 H                     1.5713   -0.4654    2.6371 
 H                     2.3107   -4.015     0.2754 
 H                     2.021    -5.434     2.265 
 H                     1.925    -0.0662    5.0608 
 H                     3.8061   -3.0783    4.8145 
 H                     3.8041   -3.7795    6.4012 
 H                     4.4582   -1.7363    7.1586 
 H                     4.1151   -0.9861    5.6081 
 H                    -0.4359    1.8214    6.8258 
 H                     0.9443    1.798     5.6875 
 H                     1.8217    2.3434    7.9658 
 H                     0.9425    1.0016    8.672 
 H                     3.4182    0.9296    6.9447 
 H                     3.2175    0.2759    8.56 
 H                    -0.9092   -2.1712    3.9206 
 H                    -1.0562   -2.3895    5.6513 
 H                    -0.358     0.2597    4.2298 
 H                    -1.7394   -0.069     5.3465 
 H                     1.0965   -1.6212    8.6403 
 H                     2.6655   -2.3249    8.6703 
 H                     1.9684   -4.1875    7.6824 
 H                    -2.3901   -3.3041    8.6162 
 H                    -1.8331   -3.4575    10.2934 
 H                    -1.8393   -4.8967    9.2545 
 H                     1.9199   -6.0019    6.1012 
 H                     1.6054   -6.4338    4.4266 
 H                     3.1564   -5.6835    4.8706 
 
 Stoichiometry    C45H56N4O5
 Framework group  C1[X(C45H56N4O5)]
 Deg. of freedom   324
 Full point group                 C1      NOp   1
 Largest Abelian subgroup         C1      NOp   1
 Largest concise Abelian subgroup C1      NOp   1
                         Standard orientation:                         
 ---------------------------------------------------------------------
 Center     Atomic      Atomic             Coordinates (Angstroms)
 Number     Number       Type             X           Y           Z
 ---------------------------------------------------------------------
      1          6           0       -1.871696   -2.163018   -0.822382
      2          6           0       -1.249112   -2.632584   -1.987741
      3          6           0       -1.609569   -2.082916   -3.236117
      4          6           0       -2.575595   -1.073101   -3.334764
      5          6           0       -3.187724   -0.615443   -2.181041
      6          6           0       -2.815618   -1.153194   -0.936417
      7          7           0       -4.196616    0.377006   -2.059638
      8          6           0       -3.532548   -0.393884    0.152513
      9          6           0       -4.758551    0.098182   -0.712051
     10          6           0       -4.053750   -1.121036    1.400017
     11          6           0       -5.815962   -1.085619   -0.820903
     12          6           0       -6.358423   -1.475713    0.560144
     13          6           0       -5.552139   -0.733655    1.644131
     14          7           0       -3.117277   -0.752331    2.462625
     15          6           0       -3.573235   -1.034096    3.816035
     16          6           0       -5.016221   -0.625024    4.110728
     17          6           0       -5.977573   -1.169088    3.053868
     18          6           0       -2.514411    0.636722    0.699901
     19          6           0       -2.651307    0.602678    2.216359
     20          6           0       -5.855810    0.787313    1.420605
     21          6           0       -5.536186    1.237895   -0.030827
     22          6           0       -4.912757    2.621411   -0.081127
     23          8           0       -4.398633    3.197790    0.869015
     24          8           0       -5.068711    3.174858   -1.316947
     25          6           0       -4.491779    4.473354   -1.453007
     26          6           0       -5.064431    0.573177   -3.211263
     27          6           0       -0.164158   -3.686990   -1.899997
     28          6           0        1.092553   -3.271674   -1.156271
     29          6           0        1.528904   -1.938642   -1.126987
     30          6           0        1.858715   -4.261432   -0.498068
     31          6           0        3.033324   -3.942739    0.197893
     32          6           0        3.449766   -2.626611    0.228407
     33          6           0        2.678220   -1.634087   -0.415739
     34          7           0        4.619933   -2.080403    0.820334
     35          6           0        3.285314   -0.291667   -0.073654
     36          6           0        4.760437   -0.802423    0.084696
     37          6           0        3.309719    0.874879   -1.044321
     38          6           0        5.363415   -1.152181   -1.371517
     39          6           0        5.197110    0.011030   -2.354047
     40          6           0        4.698228    1.245186   -1.585299
     41          7           0        2.691203    2.048299   -0.300575
     42          6           0        2.313481    3.079996   -1.310694
     43          6           0        3.601643    3.580828   -1.995657
     44          6           0        4.523876    2.459670   -2.529979
     45          6           0        2.392573    0.220936    1.095239
     46          6           0        1.607233    1.385983    0.467339
     47          6           0        5.748344    1.458523   -0.441487
     48          6           0        5.735709    0.279571    0.602314
     49          6           0        5.569676    0.719685    2.049439
     50          8           0        5.060045    0.054416    2.941885
     51          8           0        6.222967    1.899086    2.268919
     52          6           0        6.060299    2.414419    3.588868
     53          6           0        5.749513   -2.953603    1.066461
     54          8           0        3.501220    2.653113    0.629179
     55          1           0       -1.587375   -2.542462    0.156218
     56          1           0       -1.125788   -2.434164   -4.145369
     57          1           0       -2.826027   -0.664009   -4.306724
     58          1           0       -3.986833   -2.210230    1.273146
     59          1           0       -5.383380   -1.974367   -1.297034
     60          1           0       -6.657549   -0.794025   -1.462368
     61          1           0       -7.424223   -1.223604    0.628793
     62          1           0       -6.291334   -2.563187    0.688120
     63          1           0       -3.487481   -2.116850    3.975183
     64          1           0       -2.899155   -0.577727    4.551051
     65          1           0       -5.307059   -1.011799    5.094600
     66          1           0       -5.092347    0.465938    4.173128
     67          1           0       -5.989013   -2.264986    3.117776
     68          1           0       -6.997746   -0.832767    3.273833
     69          1           0       -1.483304    0.336144    0.464757
     70          1           0       -2.616921    1.638321    0.284028
     71          1           0       -1.683769    0.784947    2.696634
     72          1           0       -3.341545    1.368176    2.574059
     73          1           0       -5.351506    1.406372    2.162885
     74          1           0       -6.925453    0.967590    1.600371
     75          1           0       -6.506626    1.363718   -0.535362
     76          1           0       -4.633430    4.799935   -2.486896
     77          1           0       -4.995032    5.185937   -0.792161
     78          1           0       -3.417622    4.441231   -1.244981
     79          1           0       -5.486171   -0.370876   -3.574413
     80          1           0       -4.512116    1.047960   -4.029178
     81          1           0       -5.897433    1.237327   -2.961311
     82          1           0       -0.605650   -4.567354   -1.414384
     83          1           0        0.133715   -4.004687   -2.907289
     84          1           0        0.956828   -1.152770   -1.608974
     85          1           0        1.534251   -5.300350   -0.518947
     86          1           0        3.594132   -4.723675    0.697742
     87          1           0        2.622499    0.667109   -1.877984
     88          1           0        4.920722   -2.050717   -1.818467
     89          1           0        6.431029   -1.393607   -1.273966
     90          1           0        6.149386    0.213861   -2.859176
     91          1           0        4.484976   -0.271345   -3.140036
     92          1           0        1.804266    3.885431   -0.771184
     93          1           0        1.619298    2.617305   -2.019731
     94          1           0        3.334441    4.253798   -2.818551
     95          1           0        4.176761    4.185139   -1.282999
     96          1           0        4.085246    2.109913   -3.474552
     97          1           0        5.501857    2.883665   -2.788024
     98          1           0        1.697214   -0.515635    1.514469
     99          1           0        2.983008    0.597391    1.929790
    100          1           0        0.839865    1.061535   -0.242286
    101          1           0        1.200440    2.090997    1.197687
    102          1           0        5.649193    2.442541    0.020495
    103          1           0        6.749964    1.490171   -0.895556
    104          1           0        6.750155   -0.148156    0.603464
    105          1           0        4.999350    2.522481    3.836308
    106          1           0        6.524329    3.403873    3.625668
    107          1           0        6.564668    1.768165    4.313768
    108          1           0        6.589659   -2.385313    1.477512
    109          1           0        5.492567   -3.718557    1.807030
    110          1           0        6.089251   -3.451958    0.152164
 ---------------------------------------------------------------------
 Rotational constants (GHZ):           0.0886107           0.0317722           0.0306226
 Standard basis: STO-3G (5D, 7F)
 There are   326 symmetry adapted cartesian basis functions of A   symmetry.
 There are   326 symmetry adapted basis functions of A   symmetry.
   326 basis functions,   978 primitive gaussians,   326 cartesian basis functions
   197 alpha electrons      197 beta electrons
       nuclear repulsion energy      8091.0649047387 Hartrees.
 NAtoms=  110 NActive=  110 NUniq=  110 SFac= 1.00D+00 NAtFMM=   60 NAOKFM=T Big=T
 Integral buffers will be    131072 words long.
 Raffenetti 1 integral format.
 Two-electron integral symmetry is turned on.
 One-electron integrals computed using PRISM.
 NBasis=   326 RedAO= T EigKep=  1.73D-01  NBF=   326
 NBsUse=   326 1.00D-06 EigRej= -1.00D+00 NBFU=   326
 ExpMin= 1.69D-01 ExpMax= 1.31D+02 ExpMxC= 1.31D+02 IAcc=3 IRadAn=         5 AccDes= 0.00D+00
 Harris functional with IExCor=  205 and IRadAn=       5 diagonalized for initial guess.
 HarFok:  IExCor=  205 AccDes= 0.00D+00 IRadAn=         5 IDoV= 1 UseB2=F ITyADJ=14
 ICtDFT=  3500011 ScaDFX=  1.000000  1.000000  1.000000  1.000000
 FoFCou: FMM=F IPFlag=           0 FMFlag=      100000 FMFlg1=        2001
         NFxFlg=           0 DoJE=T BraDBF=F KetDBF=T FulRan=T
         wScrn=  0.000000 ICntrl=       500 IOpCl=  0 I1Cent=   200000004 NGrid=           0
         NMat0=    1 NMatS0=      1 NMatT0=    0 NMatD0=    1 NMtDS0=    0 NMtDT0=    0
 Petite list used in FoFCou.
 Requested convergence on RMS density matrix=1.00D-08 within 128 cycles.
 Requested convergence on MAX density matrix=1.00D-06.
 Requested convergence on             energy=1.00D-06.
 No special actions if energy rises.
 Integral accuracy reduced to 1.0D-05 until final iterations.
 Initial convergence to 1.0D-05 achieved.  Increase integral accuracy.
 SCF Done:  E(RHF) =  -2300.20198156     A.U. after   16 cycles
            NFock= 16  Conv=0.39D-08     -V/T= 2.0093
 Range of M.O.s used for correlation:     1   326
 NBasis=   326 NAE=   197 NBE=   197 NFC=     0 NFV=     0
 NROrb=    326 NOA=   197 NOB=   197 NVA=   129 NVB=   129
          Differentiating once with respect to magnetic field using GIAOs.
          Electric field/nuclear overlap derivatives assumed to be zero.
 FoFCou: FMM=F IPFlag=           0 FMFlag=      100000 FMFlg1=        2001
         NFxFlg=           0 DoJE=F BraDBF=F KetDBF=T FulRan=T
         wScrn=  0.000000 ICntrl=      6100 IOpCl=  0 I1Cent=           7 NGrid=         110
         NMat0=    1 NMatS0=      1 NMatT0=    0 NMatD0=    1 NMtDS0=    0 NMtDT0=    0
 Symmetry not used in FoFCou.
 FoFJK:  IHMeth= 1 ICntrl=    6127 DoSepK=F KAlg= 0 I1Cent=           0 FoldK=F
 IRaf=         1 NMat=       1 IRICut=       1 DoRegI=T DoRafI=F ISym2E= 0 IDoP0=0 IntGTp=1.
          There are     3 degrees of freedom in the 1st order CPHF.  IDoFFX=0 NUNeed=     3.
      3 vectors produced by pass  0 Test12= 8.47D-13 3.33D-08 XBig12= 1.74D+02 1.99D+00.
 AX will form     3 AO Fock derivatives at one time.
      3 vectors produced by pass  1 Test12= 8.47D-13 3.33D-08 XBig12= 6.16D-01 2.45D-01.
      3 vectors produced by pass  2 Test12= 8.47D-13 3.33D-08 XBig12= 1.89D-02 3.82D-02.
      3 vectors produced by pass  3 Test12= 8.47D-13 3.33D-08 XBig12= 6.14D-04 9.14D-03.
      3 vectors produced by pass  4 Test12= 8.47D-13 3.33D-08 XBig12= 2.18D-05 9.67D-04.
      3 vectors produced by pass  5 Test12= 8.47D-13 3.33D-08 XBig12= 3.94D-07 9.99D-05.
      3 vectors produced by pass  6 Test12= 8.47D-13 3.33D-08 XBig12= 1.61D-08 2.82D-05.
      3 vectors produced by pass  7 Test12= 8.47D-13 3.33D-08 XBig12= 3.98D-10 2.70D-06.
      3 vectors produced by pass  8 Test12= 8.47D-13 3.33D-08 XBig12= 6.11D-12 3.46D-07.
      3 vectors produced by pass  9 Test12= 8.47D-13 3.33D-08 XBig12= 9.85D-14 5.81D-08.
 InvSVY:  IOpt=1 It=  1 EMax= 7.11D-15
 Solved reduced A of dimension    30 with     3 vectors.
 Calculating GIAO nuclear magnetic shielding tensors.
 SCF GIAO Magnetic shielding tensor (ppm):
      1  C    Isotropic =   123.4208   Anisotropy =   156.0460
   XX=   167.5381   YX=    66.6759   ZX=   -14.3175
   XY=    60.2697   YY=   159.0245   ZY=    24.5009
   XZ=   -14.5223   YZ=    35.2630   ZZ=    43.6997
   Eigenvalues:    29.0076   113.8032   227.4514
      2  C    Isotropic =   118.4558   Anisotropy =   163.7275
   XX=   127.8325   YX=    96.8458   ZX=     9.2990
   XY=    90.0905   YY=   137.4737   ZY=     8.6233
   XZ=     6.8806   YZ=    13.7601   ZZ=    90.0612
   Eigenvalues:    38.9930    88.7669   227.6074
      3  C    Isotropic =   118.6454   Anisotropy =   152.4087
   XX=   145.5316   YX=    70.6738   ZX=    43.9362
   XY=    63.4922   YY=   155.4573   ZY=    -9.7339
   XZ=    41.3101   YZ=   -16.0487   ZZ=    54.9474
   Eigenvalues:    25.3226   110.3625   220.2512
      4  C    Isotropic =   133.8062   Anisotropy =   143.9957
   XX=   175.5171   YX=    58.8207   ZX=    -8.9710
   XY=    60.3133   YY=   160.9627   ZY=    32.4646
   XZ=    -2.0239   YZ=    27.4193   ZZ=    64.9389
   Eigenvalues:    51.5532   120.0621   229.8034
      5  C    Isotropic =   108.8704   Anisotropy =   128.8527
   XX=   124.0408   YX=    72.0336   ZX=    -1.2696
   XY=    79.8683   YY=   112.8041   ZY=     0.9788
   XZ=    -2.0190   YZ=    15.7118   ZZ=    89.7662
   Eigenvalues:    41.1840    90.6549   194.7722
      6  C    Isotropic =   116.9588   Anisotropy =   143.1060
   XX=   156.2954   YX=    61.4323   ZX=    23.9343
   XY=    65.3761   YY=   135.9718   ZY=     4.5508
   XZ=    23.2088   YZ=    -5.9157   ZZ=    58.6092
   Eigenvalues:    49.0950    89.4186   212.3628
      7  N    Isotropic =   273.9692   Anisotropy =    82.2276
   XX=   304.9566   YX=   -26.5312   ZX=   -14.3218
   XY=   -35.1946   YY=   265.7900   ZY=     1.5866
   XZ=   -30.4565   YZ=    12.6219   ZZ=   251.1611
   Eigenvalues:   241.6473   251.4728   328.7877
      8  C    Isotropic =   195.9450   Anisotropy =    11.5996
   XX=   190.5113   YX=     1.7316   ZX=     5.7003
   XY=     2.2679   YY=   196.0525   ZY=    -0.0389
   XZ=     2.0099   YZ=    -7.2503   ZZ=   201.2712
   Eigenvalues:   188.0478   196.1091   203.6781
      9  C    Isotropic =   181.0261   Anisotropy =    44.8044
   XX=   173.2085   YX=   -18.1788   ZX=   -11.8831
   XY=    -2.3959   YY=   163.9637   ZY=   -16.2004
   XZ=    -8.4045   YZ=    -9.3062   ZZ=   205.9061
   Eigenvalues:   152.3852   179.7974   210.8957
     10  C    Isotropic =   190.5676   Anisotropy =    28.7858
   XX=   191.4360   YX=     9.7545   ZX=     9.5487
   XY=     6.4407   YY=   176.5372   ZY=     2.5260
   XZ=     7.1494   YZ=     6.3330   ZZ=   203.7296
   Eigenvalues:   172.9653   188.9794   209.7582
     11  C    Isotropic =   213.7370   Anisotropy =    20.0761
   XX=   215.3799   YX=    11.2489   ZX=    -0.1954
   XY=    12.1871   YY=   215.4260   ZY=     3.8044
   XZ=    -0.3438   YZ=    -3.3330   ZZ=   210.4050
   Eigenvalues:   203.6660   210.4239   227.1210
     12  C    Isotropic =   212.9051   Anisotropy =    20.8921
   XX=   209.0921   YX=     5.8839   ZX=     6.0678
   XY=     6.3338   YY=   209.3889   ZY=     4.6257
   XZ=     7.4481   YZ=     6.4354   ZZ=   220.2343
   Eigenvalues:   203.0442   208.8379   226.8332
     13  C    Isotropic =   213.7048   Anisotropy =     9.0899
   XX=   212.4092   YX=     0.6002   ZX=    -4.3281
   XY=     4.4653   YY=   216.3439   ZY=    -1.4085
   XZ=    -3.7765   YZ=    -3.0616   ZZ=   212.3614
   Eigenvalues:   208.3268   213.0229   219.7648
     14  N    Isotropic =   303.3599   Anisotropy =    53.5808
   XX=   275.5705   YX=    35.8967   ZX=    26.8625
   XY=    45.9654   YY=   304.1199   ZY=   -14.4968
   XZ=    13.7854   YZ=    -3.0353   ZZ=   330.3893
   Eigenvalues:   241.2277   329.7715   339.0804
     15  C    Isotropic =   205.4178   Anisotropy =    35.3256
   XX=   201.5497   YX=    -1.1592   ZX=    -7.5245
   XY=    -1.6101   YY=   191.0438   ZY=    -8.8269
   XZ=    -8.5863   YZ=   -13.0917   ZZ=   223.6599
   Eigenvalues:   186.7057   200.5796   228.9682
     16  C    Isotropic =   224.2924   Anisotropy =     8.4383
   XX=   227.4213   YX=    -0.7212   ZX=     3.0012
   XY=     0.4912   YY=   218.3812   ZY=    -3.3190
   XZ=     2.2709   YZ=     1.8978   ZZ=   227.0747
   Eigenvalues:   218.3223   224.6370   229.9180
     17  C    Isotropic =   215.3576   Anisotropy =    20.0246
   XX=   209.0999   YX=     3.1787   ZX=    -3.2177
   XY=     0.4168   YY=   209.6448   ZY=    -3.5860
   XZ=     0.4179   YZ=    -5.9916   ZZ=   227.3279
   Eigenvalues:   207.2672   210.0983   228.7073
     18  C    Isotropic =   210.5353   Anisotropy =    36.2970
   XX=   211.2007   YX=    15.9146   ZX=     5.5723
   XY=    15.8194   YY=   202.2221   ZY=    19.0410
   XZ=     4.2264   YZ=    11.1629   ZZ=   218.1831
   Eigenvalues:   187.0919   209.7807   234.7333
     19  C    Isotropic =   200.0627   Anisotropy =    41.9231
   XX=   186.8006   YX=    18.2304   ZX=    -3.3592
   XY=    24.1275   YY=   211.8315   ZY=    -8.6098
   XZ=    -2.8619   YZ=   -11.7606   ZZ=   201.5558
   Eigenvalues:   174.4943   197.6822   228.0114
     20  C    Isotropic =   212.2471   Anisotropy =    20.9182
   XX=   205.0065   YX=    -2.1607   ZX=    -7.3944
   XY=    -2.5567   YY=   221.4710   ZY=    -8.3423
   XZ=    -5.5796   YZ=    -8.8715   ZZ=   210.2637
   Eigenvalues:   198.4489   212.0998   226.1925
     21  C    Isotropic =   209.1240   Anisotropy =     9.6640
   XX=   209.0718   YX=     0.2323   ZX=    -7.0140
   XY=     1.0741   YY=   215.4232   ZY=    -2.8971
   XZ=    -5.1681   YZ=     5.5959   ZZ=   202.8770
   Eigenvalues:   199.0055   212.7999   215.5667
     22  C    Isotropic =    96.5357   Anisotropy =    98.6534
   XX=   151.4541   YX=   -20.9317   ZX=    11.0138
   XY=   -27.1934   YY=    44.3159   ZY=    79.6519
   XZ=    21.5852   YZ=    99.2703   ZZ=    93.8370
   Eigenvalues:   -28.4298   155.7322   162.3046
     23  O    Isotropic =  -135.0940   Anisotropy =   889.8831
   XX=   260.0143   YX=  -284.2472   ZX=  -262.7785
   XY=  -300.7549   YY=  -230.9941   ZY=   -27.6775
   XZ=  -267.9324   YZ=   -12.1489   ZZ=  -434.3021
   Eigenvalues:  -572.5030  -290.9403   458.1614
     24  O    Isotropic =   283.7451   Anisotropy =   140.0462
   XX=   310.3830   YX=  -104.8830   ZX=     8.8232
   XY=   -82.0077   YY=   179.0615   ZY=    13.8555
   XZ=   -51.5371   YZ=  -121.4186   ZZ=   361.7908
   Eigenvalues:   116.9687   357.1574   377.1092
     25  C    Isotropic =   197.3872   Anisotropy =    56.8590
   XX=   186.6433   YX=    18.2154   ZX=    -2.9670
   XY=    17.9998   YY=   226.7910   ZY=    -8.6534
   XZ=    -3.6372   YZ=    -8.8188   ZZ=   178.7273
   Eigenvalues:   177.1843   179.6840   235.2932
     26  C    Isotropic =   209.8628   Anisotropy =    41.6335
   XX=   207.2187   YX=    -3.3974   ZX=    20.1347
   XY=    -4.9062   YY=   200.3581   ZY=    -4.9511
   XZ=    20.3717   YZ=    -7.1294   ZZ=   222.0118
   Eigenvalues:   193.0531   198.9169   237.6185
     27  C    Isotropic =   206.5150   Anisotropy =    21.9851
   XX=   213.3388   YX=    -8.8105   ZX=     6.6878
   XY=    -7.5061   YY=   207.6763   ZY=     3.3952
   XZ=    11.7856   YZ=     0.5188   ZZ=   198.5298
   Eigenvalues:   192.0854   206.2878   221.1717
     28  C    Isotropic =   118.5608   Anisotropy =   159.2170
   XX=    91.2805   YX=   -31.0152   ZX=   -79.6378
   XY=   -22.3819   YY=    89.1694   ZY=    12.4149
   XZ=   -73.8174   YZ=     9.6612   ZZ=   175.2326
   Eigenvalues:    39.3801    91.5968   224.7055
     29  C    Isotropic =   128.3155   Anisotropy =   151.0163
   XX=   136.0960   YX=    24.9960   ZX=   -68.8426
   XY=    24.4744   YY=    73.1288   ZY=    41.4400
   XZ=   -69.3590   YZ=    28.7845   ZZ=   175.7217
   Eigenvalues:    36.8139   119.1395   228.9930
     30  C    Isotropic =   118.4737   Anisotropy =   153.2759
   XX=   134.7048   YX=   -36.4347   ZX=   -50.5107
   XY=   -37.5441   YY=    39.1606   ZY=     7.7290
   XZ=   -54.0621   YZ=    16.7802   ZZ=   181.5555
   Eigenvalues:    26.2994   108.4640   220.6576
     31  C    Isotropic =   133.9072   Anisotropy =   143.3771
   XX=   133.9962   YX=    22.6945   ZX=   -66.2489
   XY=    13.4286   YY=    85.7756   ZY=    33.9280
   XZ=   -63.4923   YZ=    34.7729   ZZ=   181.9499
   Eigenvalues:    51.8451   120.3846   229.4920
     32  C    Isotropic =   108.5491   Anisotropy =   129.7929
   XX=    82.6546   YX=   -11.8669   ZX=   -66.0230
   XY=    -8.4214   YY=    89.0172   ZY=    11.7982
   XZ=   -68.4598   YZ=    -4.6469   ZZ=   153.9755
   Eigenvalues:    41.2122    89.3574   195.0777
     33  C    Isotropic =   117.8225   Anisotropy =   141.9767
   XX=   131.5231   YX=   -18.1229   ZX=   -56.3238
   XY=   -21.4473   YY=    53.4858   ZY=     7.4750
   XZ=   -56.3398   YZ=    19.4773   ZZ=   168.4584
   Eigenvalues:    48.7563    92.2375   212.4736
     34  N    Isotropic =   273.4485   Anisotropy =    85.5242
   XX=   302.4930   YX=    31.4840   ZX=     4.0151
   XY=    51.7881   YY=   266.4071   ZY=     6.5913
   XZ=     7.8842   YZ=     1.1406   ZZ=   251.4452
   Eigenvalues:   239.0725   250.8082   330.4646
     35  C    Isotropic =   200.8631   Anisotropy =    14.0655
   XX=   198.9229   YX=    -6.6503   ZX=     7.6270
   XY=    -6.6204   YY=   198.7796   ZY=    -6.1739
   XZ=     2.4054   YZ=     2.3207   ZZ=   204.8869
   Eigenvalues:   191.8038   200.5455   210.2401
     36  C    Isotropic =   179.3322   Anisotropy =    39.6707
   XX=   176.0697   YX=     2.1437   ZX=    18.7933
   XY=    -2.6420   YY=   193.5875   ZY=   -13.9665
   XZ=     4.9864   YZ=   -25.7530   ZZ=   168.3396
   Eigenvalues:   152.7445   179.4728   205.7794
     37  C    Isotropic =   184.0227   Anisotropy =    42.6962
   XX=   174.5304   YX=   -15.3087   ZX=   -14.1216
   XY=   -16.4761   YY=   195.3475   ZY=     9.7818
   XZ=   -20.7808   YZ=     6.1683   ZZ=   182.1902
   Eigenvalues:   158.6588   180.9225   212.4868
     38  C    Isotropic =   211.0906   Anisotropy =    23.6515
   XX=   205.3881   YX=     2.6434   ZX=    -8.5566
   XY=    -2.2129   YY=   206.4847   ZY=    -0.6442
   XZ=   -12.5236   YZ=     5.6743   ZZ=   221.3989
   Eigenvalues:   199.8903   206.5231   226.8583
     39  C    Isotropic =   212.8648   Anisotropy =    19.7992
   XX=   205.2424   YX=    -7.8854   ZX=    -0.5632
   XY=    -4.4366   YY=   222.0844   ZY=     7.0643
   XZ=    -1.9629   YZ=     3.4578   ZZ=   211.2676
   Eigenvalues:   203.2011   209.3290   226.0643
     40  C    Isotropic =   211.6309   Anisotropy =    11.3485
   XX=   208.2846   YX=     3.6171   ZX=    -1.2287
   XY=     2.9299   YY=   213.8974   ZY=    -5.0865
   XZ=    -1.4623   YZ=    -4.5531   ZZ=   212.7107
   Eigenvalues:   206.5921   209.1040   219.1966
     41  N    Isotropic =   235.4010   Anisotropy =    25.2275
   XX=   248.1852   YX=     9.3587   ZX=     6.4000
   XY=    -7.6081   YY=   235.7285   ZY=     6.0426
   XZ=     7.7172   YZ=    24.7504   ZZ=   222.2892
   Eigenvalues:   211.3959   242.5877   252.2193
     42  C    Isotropic =   194.0211   Anisotropy =    49.3503
   XX=   184.7323   YX=    -7.3464   ZX=     5.1630
   XY=   -10.2051   YY=   199.9096   ZY=   -27.4879
   XZ=     8.2984   YZ=   -23.2264   ZZ=   197.4216
   Eigenvalues:   173.1278   182.0142   226.9214
     43  C    Isotropic =   219.3548   Anisotropy =    11.3196
   XX=   220.8344   YX=    -1.9630   ZX=    -7.7868
   XY=    -1.4857   YY=   223.6661   ZY=    -2.5283
   XZ=    -9.7089   YZ=    -5.2631   ZZ=   213.5638
   Eigenvalues:   206.6867   224.4765   226.9012
     44  C    Isotropic =   214.8796   Anisotropy =    22.2034
   XX=   205.7489   YX=    -3.2312   ZX=    -2.6325
   XY=    -5.6587   YY=   223.7773   ZY=    -9.3130
   XZ=     0.0509   YZ=    -8.3297   ZZ=   215.1125
   Eigenvalues:   203.4528   211.5041   229.6818
     45  C    Isotropic =   207.2997   Anisotropy =    35.1593
   XX=   203.6421   YX=   -17.3880   ZX=   -16.6305
   XY=   -12.0536   YY=   213.5193   ZY=     1.0676
   XZ=   -22.1630   YZ=    -1.0001   ZZ=   204.7378
   Eigenvalues:   181.0820   210.0779   230.7393
     46  C    Isotropic =   191.2121   Anisotropy =    54.5023
   XX=   202.1273   YX=     4.8381   ZX=   -26.6369
   XY=    16.5604   YY=   192.2089   ZY=   -13.1470
   XZ=   -25.0024   YZ=   -17.2335   ZZ=   179.3000
   Eigenvalues:   160.6866   185.4026   227.5469
     47  C    Isotropic =   211.7699   Anisotropy =    25.2904
   XX=   207.6488   YX=     4.6296   ZX=    11.3699
   XY=     4.1474   YY=   205.4596   ZY=    -7.1414
   XZ=     9.8971   YZ=    -6.9273   ZZ=   222.2012
   Eigenvalues:   196.1690   210.5104   228.6302
     48  C    Isotropic =   207.2629   Anisotropy =    16.5180
   XX=   202.6225   YX=     1.6814   ZX=     2.4708
   XY=     2.5397   YY=   208.1163   ZY=     9.0243
   XZ=     5.3315   YZ=     5.6386   ZZ=   211.0499
   Eigenvalues:   200.8759   202.6379   218.2749
     49  C    Isotropic =    98.2945   Anisotropy =    96.6415
   XX=   146.6344   YX=   -35.7631   ZX=   -35.7935
   XY=   -30.1196   YY=    66.7215   ZY=   -99.2213
   XZ=   -22.3983   YZ=   -77.0547   ZZ=    81.5276
   Eigenvalues:   -25.5391   157.7005   162.7222
     50  O    Isotropic =  -133.0760   Anisotropy =   880.1529
   XX=   203.6897   YX=  -382.6461   ZX=   201.2917
   XY=  -373.2228   YY=  -211.8506   ZY=    43.2897
   XZ=   201.5439   YZ=    58.5429   ZZ=  -391.0670
   Eigenvalues:  -570.8937  -282.0269   453.6926
     51  O    Isotropic =   285.9243   Anisotropy =   142.6655
   XX=   357.0311   YX=    30.0663   ZX=    71.7268
   XY=    -2.5699   YY=   370.6570   ZY=    58.2933
   XZ=    26.6484   YZ=   -75.8626   ZZ=   130.0849
   Eigenvalues:   119.3650   357.3733   381.0347
     52  C    Isotropic =   197.4968   Anisotropy =    56.5658
   XX=   180.4241   YX=    -0.5297   ZX=    -1.8682
   XY=    -1.5178   YY=   187.1243   ZY=    22.2475
   XZ=    -1.6061   YZ=    21.9932   ZZ=   224.9419
   Eigenvalues:   176.9204   180.3626   235.2073
     53  C    Isotropic =   211.0949   Anisotropy =    42.2533
   XX=   220.9448   YX=   -20.9177   ZX=     7.3546
   XY=   -20.1119   YY=   210.9762   ZY=    -5.7707
   XZ=     7.8216   YZ=    -4.4141   ZZ=   201.3637
   Eigenvalues:   194.7478   199.2732   239.2638
     54  O    Isotropic =    74.8014   Anisotropy =   406.4053
   XX=    54.5450   YX=   114.5245   ZX=   154.2409
   XY=    93.2913   YY=    25.3785   ZY=   133.4549
   XZ=   135.0561   YZ=   146.2390   ZZ=   144.4806
   Eigenvalues:   -69.3946   -51.9395   345.7383
     55  H    Isotropic =    26.0685   Anisotropy =    15.1757
   XX=    30.0676   YX=    -6.0120   ZX=    -3.4545
   XY=    -6.2286   YY=    25.0612   ZY=     1.8302
   XZ=    -5.9723   YZ=     2.5098   ZZ=    23.0766
   Eigenvalues:    20.2384    21.7814    36.1856
     56  H    Isotropic =    25.7375   Anisotropy =     5.6776
   XX=    24.9290   YX=    -3.2168   ZX=     1.6337
   XY=    -3.2576   YY=    24.4698   ZY=    -0.3242
   XZ=     1.9021   YZ=    -0.5607   ZZ=    27.8137
   Eigenvalues:    21.3268    26.3631    29.5226
     57  H    Isotropic =    26.5376   Anisotropy =     7.4683
   XX=    26.3886   YX=    -4.2639   ZX=    -2.0695
   XY=    -4.5495   YY=    23.9053   ZY=     0.9566
   XZ=    -1.7255   YZ=     0.5647   ZZ=    29.3191
   Eigenvalues:    20.5339    27.5625    31.5165
     58  H    Isotropic =    31.6376   Anisotropy =     8.7091
   XX=    29.2919   YX=    -1.8250   ZX=    -1.6274
   XY=    -2.4441   YY=    36.7650   ZY=    -0.6176
   XZ=    -1.0751   YZ=     1.9110   ZZ=    28.8558
   Eigenvalues:    27.6018    29.8673    37.4437
     59  H    Isotropic =    32.9292   Anisotropy =     8.8082
   XX=    31.7290   YX=    -0.3586   ZX=    -3.1658
   XY=     3.0266   YY=    35.2912   ZY=     4.6577
   XZ=    -1.7607   YZ=     5.2435   ZZ=    31.7675
   Eigenvalues:    26.7253    33.2611    38.8014
     60  H    Isotropic =    32.1808   Anisotropy =    13.6364
   XX=    36.4261   YX=     1.0824   ZX=     5.7740
   XY=     2.9049   YY=    25.5457   ZY=    -2.0161
   XZ=     5.6100   YZ=    -1.7231   ZZ=    34.5705
   Eigenvalues:    24.2055    31.0652    41.2717
     61  H    Isotropic =    32.3803   Anisotropy =    15.4684
   XX=    42.4219   YX=     2.0878   ZX=    -0.1471
   XY=     2.1694   YY=    25.9105   ZY=    -0.2980
   XZ=     0.0320   YZ=    -0.2339   ZZ=    28.8084
   Eigenvalues:    25.6198    28.8284    42.6925
     62  H    Isotropic =    32.6152   Anisotropy =    13.8288
   XX=    28.5279   YX=     4.2037   ZX=    -0.7583
   XY=     5.0007   YY=    40.1807   ZY=    -1.1126
   XZ=    -0.2218   YZ=    -0.3215   ZZ=    29.1369
   Eigenvalues:    26.9058    29.1053    41.8344
     63  H    Isotropic =    31.9452   Anisotropy =    14.3527
   XX=    28.2711   YX=    -3.0782   ZX=    -0.0509
   XY=    -3.7541   YY=    36.3860   ZY=    -6.1863
   XZ=     0.4244   YZ=    -6.9652   ZZ=    31.1785
   Eigenvalues:    25.3771    28.9449    41.5137
     64  H    Isotropic =    31.9215   Anisotropy =    14.4780
   XX=    32.9705   YX=     2.0216   ZX=     5.0521
   XY=     2.2616   YY=    24.9194   ZY=     1.0542
   XZ=     5.7343   YZ=     0.7890   ZZ=    37.8745
   Eigenvalues:    24.3687    29.8222    41.5734
     65  H    Isotropic =    32.7001   Anisotropy =    18.1932
   XX=    29.2958   YX=     1.1985   ZX=    -4.2019
   XY=     1.3665   YY=    26.0310   ZY=    -3.9835
   XZ=    -4.3637   YZ=    -3.3956   ZZ=    42.7735
   Eigenvalues:    25.2079    28.0635    44.8289
     66  H    Isotropic =    32.6090   Anisotropy =    10.4177
   XX=    27.9554   YX=    -1.5790   ZX=    -1.5051
   XY=    -1.6067   YY=    36.8990   ZY=     3.8487
   XZ=    -1.4077   YZ=     3.6480   ZZ=    32.9725
   Eigenvalues:    27.5152    30.7577    39.5541
     67  H    Isotropic =    32.7035   Anisotropy =    13.5208
   XX=    28.4966   YX=     4.4634   ZX=    -1.2484
   XY=     4.6132   YY=    38.4492   ZY=    -3.8851
   XZ=    -1.1741   YZ=    -3.7351   ZZ=    31.1646
   Eigenvalues:    26.7192    29.6738    41.7174
     68  H    Isotropic =    32.5284   Anisotropy =    15.0956
   XX=    40.2475   YX=    -0.6752   ZX=    -5.0835
   XY=    -1.2268   YY=    25.5673   ZY=    -0.5578
   XZ=    -4.9351   YZ=    -0.6889   ZZ=    31.7703
   Eigenvalues:    25.3204    29.6726    42.5921
     69  H    Isotropic =    32.7963   Anisotropy =    18.4444
   XX=    44.5448   YX=     0.8038   ZX=    -1.0173
   XY=     0.3344   YY=    25.6204   ZY=     4.1136
   XZ=    -5.0606   YZ=     3.0370   ZZ=    28.2238
   Eigenvalues:    22.8855    30.4109    45.0926
     70  H    Isotropic =    33.0762   Anisotropy =     8.8318
   XX=    33.0474   YX=     0.8471   ZX=     2.1485
   XY=     0.9128   YY=    37.8412   ZY=    -3.4267
   XZ=     0.0482   YZ=    -3.3303   ZZ=    28.3400
   Eigenvalues:    26.9758    33.2887    38.9641
     71  H    Isotropic =    32.0759   Anisotropy =    15.1847
   XX=    38.4918   YX=     4.1834   ZX=     4.6809
   XY=     5.9135   YY=    26.3700   ZY=     2.4383
   XZ=     3.2446   YZ=     2.1404   ZZ=    31.3657
   Eigenvalues:    24.4286    29.6000    42.1990
     72  H    Isotropic =    32.0231   Anisotropy =     8.5262
   XX=    30.4554   YX=    -1.3341   ZX=    -0.4085
   XY=    -1.3870   YY=    35.1424   ZY=     3.9743
   XZ=    -1.7175   YZ=     3.7143   ZZ=    30.4715
   Eigenvalues:    28.2727    30.0894    37.7072
     73  H    Isotropic =    31.4343   Anisotropy =     9.0187
   XX=    27.4811   YX=     0.9247   ZX=     1.4947
   XY=     0.3666   YY=    33.3803   ZY=     4.3701
   XZ=     1.6824   YZ=     3.1959   ZZ=    33.4416
   Eigenvalues:    27.0638    29.7924    37.4468
     74  H    Isotropic =    32.2518   Anisotropy =    15.1011
   XX=    38.9806   YX=    -4.8898   ZX=    -4.6279
   XY=    -5.5225   YY=    28.4179   ZY=    -0.3662
   XZ=    -4.2830   YZ=    -0.7901   ZZ=    29.3568
   Eigenvalues:    24.8828    29.5533    42.3192
     75  H    Isotropic =    31.2021   Anisotropy =    12.5424
   XX=    35.6016   YX=    -3.4149   ZX=     4.7153
   XY=    -3.9534   YY=    28.4068   ZY=    -3.1539
   XZ=     3.0529   YZ=    -3.4230   ZZ=    29.5979
   Eigenvalues:    25.6404    28.4022    39.5637
     76  H    Isotropic =    30.5548   Anisotropy =    11.7149
   XX=    25.8705   YX=    -0.1045   ZX=     0.5242
   XY=    -0.5846   YY=    31.7463   ZY=    -5.6713
   XZ=     0.8346   YZ=    -4.9283   ZZ=    34.0478
   Eigenvalues:    25.8110    27.4887    38.3648
     77  H    Isotropic =    30.5738   Anisotropy =    11.6252
   XX=    27.2474   YX=    -3.2253   ZX=    -1.2111
   XY=    -3.4010   YY=    36.5344   ZY=     2.0301
   XZ=    -1.8641   YZ=     2.7499   ZZ=    27.9395
   Eigenvalues:    25.8208    27.5767    38.3239
     78  H    Isotropic =    30.6719   Anisotropy =     8.1777
   XX=    35.2512   YX=     2.5124   ZX=     0.1434
   XY=     1.7236   YY=    30.9764   ZY=    -1.4454
   XZ=     0.8235   YZ=    -1.3732   ZZ=    25.7881
   Eigenvalues:    25.3247    30.5674    36.1237
     79  H    Isotropic =    31.8678   Anisotropy =    12.1005
   XX=    30.7309   YX=     1.9524   ZX=     4.9245
   XY=     3.9316   YY=    30.1426   ZY=     3.7517
   XZ=     4.5487   YZ=     3.1187   ZZ=    34.7300
   Eigenvalues:    27.2733    28.3954    39.9348
     80  H    Isotropic =    30.7307   Anisotropy =    13.8539
   XX=    26.9935   YX=    -0.8937   ZX=    -2.0102
   XY=    -0.1889   YY=    27.7155   ZY=    -5.0626
   XZ=    -2.0701   YZ=    -5.3930   ZZ=    37.4830
   Eigenvalues:    24.6518    27.5736    39.9666
     81  H    Isotropic =    30.8734   Anisotropy =    10.7238
   XX=    31.7536   YX=    -6.7545   ZX=     2.4249
   XY=    -5.7246   YY=    29.5628   ZY=    -0.6519
   XZ=     2.7149   YZ=    -1.3723   ZZ=    31.3037
   Eigenvalues:    24.2059    30.3917    38.0226
     82  H    Isotropic =    29.9125   Anisotropy =    10.9918
   XX=    28.9519   YX=     2.9526   ZX=     0.1703
   XY=    -0.5134   YY=    36.1251   ZY=    -3.5944
   XZ=    -0.7540   YZ=    -3.1789   ZZ=    24.6604
   Eigenvalues:    23.7344    28.7626    37.2404
     83  H    Isotropic =    30.2321   Anisotropy =    11.2726
   XX=    26.9409   YX=    -3.3281   ZX=    -1.1722
   XY=    -2.7331   YY=    28.4656   ZY=     4.5089
   XZ=     2.0474   YZ=     4.8072   ZZ=    35.2900
   Eigenvalues:    23.5619    29.3873    37.7472
     84  H    Isotropic =    27.5207   Anisotropy =    17.1260
   XX=    34.5727   YX=     4.2324   ZX=     4.0413
   XY=     7.6038   YY=    26.5020   ZY=     2.6505
   XZ=     3.9650   YZ=     2.0910   ZZ=    21.4873
   Eigenvalues:    20.2347    23.3893    38.9380
     85  H    Isotropic =    25.6283   Anisotropy =     6.5544
   XX=    26.9786   YX=    -1.3760   ZX=     3.5696
   XY=    -1.0448   YY=    27.2176   ZY=    -1.1786
   XZ=     3.6275   YZ=    -1.2017   ZZ=    22.6886
   Eigenvalues:    20.6139    26.2730    29.9979
     86  H    Isotropic =    26.4153   Anisotropy =     7.2810
   XX=    26.9691   YX=     2.0608   ZX=     2.8556
   XY=     1.9747   YY=    30.3149   ZY=    -1.3235
   XZ=     3.2841   YZ=    -1.0919   ZZ=    21.9619
   Eigenvalues:    20.1210    27.8556    31.2693
     87  H    Isotropic =    32.1505   Anisotropy =     7.6519
   XX=    34.0315   YX=     2.1347   ZX=     3.6066
   XY=     2.3745   YY=    31.0561   ZY=     0.8108
   XZ=     4.0183   YZ=    -1.1112   ZZ=    31.3640
   Eigenvalues:    27.9264    31.2734    37.2518
     88  H    Isotropic =    33.1456   Anisotropy =     8.4560
   XX=    30.1118   YX=     3.3149   ZX=    -0.8640
   XY=     1.2842   YY=    36.8714   ZY=     4.0871
   XZ=    -4.0781   YZ=     2.6355   ZZ=    32.4536
   Eigenvalues:    27.0650    33.5888    38.7829
     89  H    Isotropic =    32.1385   Anisotropy =    13.7634
   XX=    38.2716   YX=    -5.3573   ZX=    -2.1230
   XY=    -5.5075   YY=    29.8184   ZY=    -0.6829
   XZ=    -3.9482   YZ=    -1.6973   ZZ=    28.3257
   Eigenvalues:    25.1495    29.9520    41.3142
     90  H    Isotropic =    32.2685   Anisotropy =    15.9570
   XX=    35.6314   YX=    -0.1003   ZX=    -8.1392
   XY=    -0.5262   YY=    28.0371   ZY=    -1.1391
   XZ=    -8.6669   YZ=    -1.5281   ZZ=    33.1370
   Eigenvalues:    25.3380    28.5610    42.9065
     91  H    Isotropic =    33.0267   Anisotropy =    11.6010
   XX=    30.0784   YX=     1.8526   ZX=     3.3428
   XY=     1.0251   YY=    30.1015   ZY=     3.7826
   XZ=     2.6321   YZ=     1.9630   ZZ=    38.9003
   Eigenvalues:    28.6488    29.6706    40.7607
     92  H    Isotropic =    31.0733   Anisotropy =    13.0985
   XX=    31.3032   YX=    -5.7739   ZX=    -2.9176
   XY=    -5.1232   YY=    35.8565   ZY=     1.2464
   XZ=    -2.8771   YZ=    -0.1272   ZZ=    26.0603
   Eigenvalues:    24.4191    28.9952    39.8057
     93  H    Isotropic =    32.3545   Anisotropy =    11.1710
   XX=    36.5552   YX=     1.0810   ZX=     5.1587
   XY=     0.7015   YY=    29.5768   ZY=    -2.8503
   XZ=     5.5153   YZ=    -2.0497   ZZ=    30.9315
   Eigenvalues:    25.9149    31.3467    39.8018
     94  H    Isotropic =    32.4124   Anisotropy =    17.1301
   XX=    28.2241   YX=    -2.5239   ZX=     0.7531
   XY=    -2.0283   YY=    36.1211   ZY=    -8.6470
   XZ=     0.2487   YZ=    -9.1641   ZZ=    32.8921
   Eigenvalues:    25.0620    28.3428    43.8325
     95  H    Isotropic =    31.1441   Anisotropy =    13.0819
   XX=    29.4221   YX=     4.5734   ZX=     2.3644
   XY=     4.8989   YY=    36.2818   ZY=     3.3082
   XZ=     1.9212   YZ=     2.9440   ZZ=    27.7284
   Eigenvalues:    26.2692    27.2979    39.8654
     96  H    Isotropic =    32.7742   Anisotropy =    12.1448
   XX=    27.6147   YX=    -0.7474   ZX=     2.2944
   XY=    -0.8998   YY=    30.1880   ZY=    -0.0292
   XZ=     1.8948   YZ=    -0.6307   ZZ=    40.5198
   Eigenvalues:    27.0947    30.3571    40.8707
     97  H    Isotropic =    32.1612   Anisotropy =    15.5499
   XX=    36.0675   YX=     4.1909   ZX=    -5.2603
   XY=     4.3222   YY=    31.3619   ZY=    -4.9634
   XZ=    -5.5524   YZ=    -5.2129   ZZ=    29.0542
   Eigenvalues:    24.6514    29.3043    42.5278
     98  H    Isotropic =    32.8105   Anisotropy =    11.0813
   XX=    35.0989   YX=     1.6368   ZX=    -5.7475
   XY=     3.4431   YY=    31.9138   ZY=    -2.8804
   XZ=    -5.3400   YZ=    -0.3870   ZZ=    31.4188
   Eigenvalues:    27.4107    30.8228    40.1981
     99  H    Isotropic =    31.4168   Anisotropy =    11.3286
   XX=    32.2775   YX=    -0.1425   ZX=     4.0358
   XY=    -0.1248   YY=    25.8026   ZY=     2.4743
   XZ=     3.5415   YZ=     3.5448   ZZ=    36.1703
   Eigenvalues:    24.7984    30.4828    38.9692
    100  H    Isotropic =    32.2852   Anisotropy =    17.4819
   XX=    42.9366   YX=     2.5147   ZX=     2.7745
   XY=     4.2682   YY=    28.4938   ZY=     0.6568
   XZ=     1.2839   YZ=     0.7716   ZZ=    25.4253
   Eigenvalues:    25.1540    27.7619    43.9398
    101  H    Isotropic =    31.2569   Anisotropy =    13.5864
   XX=    34.3928   YX=    -3.8904   ZX=    -6.0550
   XY=    -2.3735   YY=    29.7615   ZY=     3.3147
   XZ=    -5.0749   YZ=     4.7486   ZZ=    29.6163
   Eigenvalues:    25.0302    28.4260    40.3145
    102  H    Isotropic =    29.8984   Anisotropy =    10.7550
   XX=    26.9525   YX=     1.6607   ZX=     4.3820
   XY=     2.8275   YY=    34.2204   ZY=     3.1583
   XZ=     3.2363   YZ=     3.3283   ZZ=    28.5223
   Eigenvalues:    23.8369    28.7899    37.0684
    103  H    Isotropic =    31.8175   Anisotropy =    14.9549
   XX=    40.0042   YX=     4.0588   ZX=    -2.1080
   XY=     3.8533   YY=    27.1460   ZY=    -1.8047
   XZ=    -2.8740   YZ=    -2.4633   ZZ=    28.3022
   Eigenvalues:    25.2638    28.4012    41.7874
    104  H    Isotropic =    31.4124   Anisotropy =    13.1598
   XX=    38.8493   YX=    -2.8812   ZX=     2.3624
   XY=    -2.8146   YY=    29.1691   ZY=     0.4985
   XZ=     3.2542   YZ=    -1.1619   ZZ=    26.2188
   Eigenvalues:    25.5986    28.4530    40.1856
    105  H    Isotropic =    30.5908   Anisotropy =     7.1942
   XX=    33.4561   YX=    -2.0010   ZX=    -1.7619
   XY=    -0.5957   YY=    27.2473   ZY=     3.6186
   XZ=    -1.3944   YZ=     3.6405   ZZ=    31.0690
   Eigenvalues:    25.0453    31.3402    35.3869
    106  H    Isotropic =    30.6596   Anisotropy =    12.5225
   XX=    28.1746   YX=     4.2669   ZX=     1.9994
   XY=     4.7852   YY=    34.9752   ZY=     3.2985
   XZ=     2.4370   YZ=     3.9755   ZZ=    28.8290
   Eigenvalues:    25.8234    27.1475    39.0079
    107  H    Isotropic =    30.6040   Anisotropy =    11.4999
   XX=    28.6990   YX=    -0.7119   ZX=     5.0194
   XY=    -0.9847   YY=    28.0453   ZY=    -1.4613
   XZ=     5.5206   YZ=    -1.1020   ZZ=    35.0676
   Eigenvalues:    25.7204    27.8210    38.2706
    108  H    Isotropic =    31.4810   Anisotropy =    11.9730
   XX=    36.1417   YX=    -0.2874   ZX=     6.6062
   XY=     0.0587   YY=    31.1999   ZY=    -0.5869
   XZ=     6.1412   YZ=    -1.0492   ZZ=    27.1014
   Eigenvalues:    23.7466    31.2334    39.4631
    109  H    Isotropic =    30.7403   Anisotropy =    14.6685
   XX=    27.7869   YX=    -1.4865   ZX=     2.4372
   XY=    -0.7969   YY=    34.3033   ZY=    -7.5455
   XZ=     2.0038   YZ=    -7.6953   ZZ=    30.1308
   Eigenvalues:    23.9861    27.7156    40.5193
    110  H    Isotropic =    31.9354   Anisotropy =    12.2271
   XX=    32.0399   YX=    -6.0070   ZX=    -1.8215
   XY=    -5.8001   YY=    33.7990   ZY=     2.3569
   XZ=    -3.4417   YZ=     2.2948   ZZ=    29.9674
   Eigenvalues:    26.8444    28.8751    40.0868
 End of Minotr F.D. properties file   721 does not exist.
 End of Minotr F.D. properties file   722 does not exist.
 End of Minotr F.D. properties file   788 does not exist.
 Hyperfine terms turned off by default for NAtoms > 100.

 **********************************************************************

            Population analysis using the SCF Density.

 **********************************************************************

 Orbital symmetries:
       Occupied  (A) (A) (A) (A) (A) (A) (A) (A) (A) (A) (A) (A)
                 (A) (A) (A) (A) (A) (A) (A) (A) (A) (A) (A) (A)
                 (A) (A) (A) (A) (A) (A) (A) (A) (A) (A) (A) (A)
                 (A) (A) (A) (A) (A) (A) (A) (A) (A) (A) (A) (A)
                 (A) (A) (A) (A) (A) (A) (A) (A) (A) (A) (A) (A)
                 (A) (A) (A) (A) (A) (A) (A) (A) (A) (A) (A) (A)
                 (A) (A) (A) (A) (A) (A) (A) (A) (A) (A) (A) (A)
                 (A) (A) (A) (A) (A) (A) (A) (A) (A) (A) (A) (A)
                 (A) (A) (A) (A) (A) (A) (A) (A) (A) (A) (A) (A)
                 (A) (A) (A) (A) (A) (A) (A) (A) (A) (A) (A) (A)
                 (A) (A) (A) (A) (A) (A) (A) (A) (A) (A) (A) (A)
                 (A) (A) (A) (A) (A) (A) (A) (A) (A) (A) (A) (A)
                 (A) (A) (A) (A) (A) (A) (A) (A) (A) (A) (A) (A)
                 (A) (A) (A) (A) (A) (A) (A) (A) (A) (A) (A) (A)
                 (A) (A) (A) (A) (A) (A) (A) (A) (A) (A) (A) (A)
                 (A) (A) (A) (A) (A) (A) (A) (A) (A) (A) (A) (A)
                 (A) (A) (A) (A) (A)
       Virtual   (A) (A) (A) (A) (A) (A) (A) (A) (A) (A) (A) (A)
                 (A) (A) (A) (A) (A) (A) (A) (A) (A) (A) (A) (A)
                 (A) (A) (A) (A) (A) (A) (A) (A) (A) (A) (A) (A)
                 (A) (A) (A) (A) (A) (A) (A) (A) (A) (A) (A) (A)
                 (A) (A) (A) (A) (A) (A) (A) (A) (A) (A) (A) (A)
                 (A) (A) (A) (A) (A) (A) (A) (A) (A) (A) (A) (A)
                 (A) (A) (A) (A) (A) (A) (A) (A) (A) (A) (A) (A)
                 (A) (A) (A) (A) (A) (A) (A) (A) (A) (A) (A) (A)
                 (A) (A) (A) (A) (A) (A) (A) (A) (A) (A) (A) (A)
                 (A) (A) (A) (A) (A) (A) (A) (A) (A) (A) (A) (A)
                 (A) (A) (A) (A) (A) (A) (A) (A) (A)
 The electronic state is 1-A.
 Alpha  occ. eigenvalues --  -20.30733 -20.28369 -20.24755 -20.22376 -19.91974
 Alpha  occ. eigenvalues --  -15.48010 -15.33725 -15.33208 -15.30432 -11.16614
 Alpha  occ. eigenvalues --  -11.14600 -11.10701 -11.09545 -11.09510 -11.09153
 Alpha  occ. eigenvalues --  -11.08936 -11.08599 -11.08539 -11.08109 -11.07841
 Alpha  occ. eigenvalues --  -11.07091 -11.06672 -11.06487 -11.06202 -11.06110
 Alpha  occ. eigenvalues --  -11.06090 -11.05799 -11.05766 -11.05604 -11.05508
 Alpha  occ. eigenvalues --  -11.05342 -11.05093 -11.04664 -11.04498 -11.04427
 Alpha  occ. eigenvalues --  -11.04383 -11.04126 -11.04035 -11.04011 -11.03977
 Alpha  occ. eigenvalues --  -11.03815 -11.03799 -11.03512 -11.03025 -11.02156
 Alpha  occ. eigenvalues --  -11.02100 -11.01915 -11.01907 -11.01892 -11.01675
 Alpha  occ. eigenvalues --  -11.01671 -11.01595 -11.01520 -11.01248  -1.37972
 Alpha  occ. eigenvalues --   -1.35609  -1.29385  -1.27778  -1.25347  -1.21548
 Alpha  occ. eigenvalues --   -1.20643  -1.18840  -1.10367  -1.09727  -1.08824
 Alpha  occ. eigenvalues --   -1.07511  -1.05637  -1.04886  -1.02647  -1.00836
 Alpha  occ. eigenvalues --   -0.99130  -0.98603  -0.98429  -0.97355  -0.96808
 Alpha  occ. eigenvalues --   -0.96399  -0.95017  -0.94513  -0.94008  -0.92272
 Alpha  occ. eigenvalues --   -0.91754  -0.91604  -0.89509  -0.89208  -0.87873
 Alpha  occ. eigenvalues --   -0.86443  -0.84763  -0.82699  -0.81977  -0.81050
 Alpha  occ. eigenvalues --   -0.80249  -0.79651  -0.78108  -0.77738  -0.77382
 Alpha  occ. eigenvalues --   -0.77082  -0.74373  -0.74009  -0.72652  -0.72074
 Alpha  occ. eigenvalues --   -0.71332  -0.70205  -0.69445  -0.68187  -0.65996
 Alpha  occ. eigenvalues --   -0.65037  -0.64893  -0.64461  -0.63590  -0.62761
 Alpha  occ. eigenvalues --   -0.62352  -0.62329  -0.61378  -0.61250  -0.61127
 Alpha  occ. eigenvalues --   -0.60713  -0.59800  -0.58987  -0.58703  -0.58327
 Alpha  occ. eigenvalues --   -0.58238  -0.58015  -0.57767  -0.57637  -0.57203
 Alpha  occ. eigenvalues --   -0.56915  -0.56668  -0.56017  -0.55431  -0.55273
 Alpha  occ. eigenvalues --   -0.54925  -0.54712  -0.54461  -0.54344  -0.54145
 Alpha  occ. eigenvalues --   -0.54045  -0.53626  -0.53136  -0.52781  -0.52166
 Alpha  occ. eigenvalues --   -0.51847  -0.51388  -0.50950  -0.50705  -0.50127
 Alpha  occ. eigenvalues --   -0.49880  -0.49441  -0.49111  -0.48762  -0.48670
 Alpha  occ. eigenvalues --   -0.48286  -0.48002  -0.47892  -0.47434  -0.46956
 Alpha  occ. eigenvalues --   -0.46712  -0.45872  -0.45800  -0.45658  -0.44998
 Alpha  occ. eigenvalues --   -0.44891  -0.44703  -0.44409  -0.44347  -0.43708
 Alpha  occ. eigenvalues --   -0.43521  -0.43175  -0.42771  -0.42559  -0.42406
 Alpha  occ. eigenvalues --   -0.42192  -0.42114  -0.41414  -0.41006  -0.40620
 Alpha  occ. eigenvalues --   -0.40228  -0.39767  -0.38603  -0.38497  -0.38101
 Alpha  occ. eigenvalues --   -0.37463  -0.37189  -0.36489  -0.35426  -0.34351
 Alpha  occ. eigenvalues --   -0.33439  -0.33014  -0.32221  -0.31060  -0.30387
 Alpha  occ. eigenvalues --   -0.27344  -0.26850  -0.26060  -0.21183  -0.20243
 Alpha  occ. eigenvalues --   -0.15915  -0.15389
 Alpha virt. eigenvalues --    0.26757   0.27469   0.27772   0.28383   0.30349
 Alpha virt. eigenvalues --    0.32984   0.45840   0.48141   0.48552   0.48988
 Alpha virt. eigenvalues --    0.49486   0.50108   0.50122   0.51611   0.52145
 Alpha virt. eigenvalues --    0.54035   0.55344   0.55494   0.55569   0.55817
 Alpha virt. eigenvalues --    0.57007   0.57583   0.57906   0.58822   0.59098
 Alpha virt. eigenvalues --    0.59360   0.59801   0.60308   0.60739   0.61065
 Alpha virt. eigenvalues --    0.61457   0.61811   0.61827   0.62538   0.63120
 Alpha virt. eigenvalues --    0.63311   0.63790   0.64084   0.64151   0.64636
 Alpha virt. eigenvalues --    0.64736   0.65204   0.65457   0.65551   0.65709
 Alpha virt. eigenvalues --    0.66142   0.66754   0.66889   0.67007   0.67429
 Alpha virt. eigenvalues --    0.67564   0.67861   0.68231   0.68344   0.68648
 Alpha virt. eigenvalues --    0.68951   0.69366   0.69434   0.69514   0.69974
 Alpha virt. eigenvalues --    0.70327   0.70446   0.70600   0.70750   0.70975
 Alpha virt. eigenvalues --    0.71208   0.71438   0.71521   0.71916   0.72504
 Alpha virt. eigenvalues --    0.72805   0.73246   0.73344   0.73631   0.73748
 Alpha virt. eigenvalues --    0.74024   0.74372   0.74517   0.74607   0.74819
 Alpha virt. eigenvalues --    0.75161   0.75556   0.75869   0.76174   0.76219
 Alpha virt. eigenvalues --    0.76704   0.76746   0.77115   0.77534   0.77601
 Alpha virt. eigenvalues --    0.78019   0.78145   0.78840   0.79166   0.79272
 Alpha virt. eigenvalues --    0.79676   0.80061   0.80383   0.80607   0.80791
 Alpha virt. eigenvalues --    0.81251   0.81333   0.81494   0.81707   0.82061
 Alpha virt. eigenvalues --    0.82477   0.84050   0.84357   0.84462   0.84516
 Alpha virt. eigenvalues --    0.85955   0.86213   0.86453   0.87253   0.87426
 Alpha virt. eigenvalues --    0.88401   0.89304   0.90918   0.91646   0.94101
 Alpha virt. eigenvalues --    0.94919   0.95789   0.97487   1.01358   1.03455
 Alpha virt. eigenvalues --    1.10370   1.11548   1.15732   1.16179
          Condensed to atoms (all electrons):
 Mulliken charges:
               1
     1  C   -0.074300
     2  C   -0.001527
     3  C   -0.064540
     4  C   -0.091874
     5  C    0.088092
     6  C   -0.013427
     7  N   -0.286944
     8  C    0.018355
     9  C    0.127630
    10  C    0.041179
    11  C   -0.114909
    12  C   -0.105590
    13  C    0.028042
    14  N   -0.291115
    15  C   -0.014721
    16  C   -0.108250
    17  C   -0.102043
    18  C   -0.105246
    19  C   -0.019147
    20  C   -0.110502
    21  C   -0.066605
    22  C    0.319434
    23  O   -0.276207
    24  O   -0.255771
    25  C   -0.055881
    26  C   -0.079256
    27  C   -0.110278
    28  C    0.000445
    29  C   -0.079876
    30  C   -0.062225
    31  C   -0.090225
    32  C    0.095340
    33  C   -0.013918
    34  N   -0.281393
    35  C    0.015236
    36  C    0.135096
    37  C    0.039486
    38  C   -0.115930
    39  C   -0.105393
    40  C    0.040107
    41  N   -0.081315
    42  C   -0.003343
    43  C   -0.097140
    44  C   -0.099089
    45  C   -0.098103
    46  C   -0.005298
    47  C   -0.098551
    48  C   -0.058438
    49  C    0.327119
    50  O   -0.275256
    51  O   -0.255819
    52  C   -0.053988
    53  C   -0.076936
    54  O   -0.461352
    55  H    0.068736
    56  H    0.055359
    57  H    0.057680
    58  H    0.056886
    59  H    0.054410
    60  H    0.050683
    61  H    0.048311
    62  H    0.050762
    63  H    0.054362
    64  H    0.062808
    65  H    0.054073
    66  H    0.050489
    67  H    0.050295
    68  H    0.051326
    69  H    0.059959
    70  H    0.062442
    71  H    0.058111
    72  H    0.051880
    73  H    0.068133
    74  H    0.051495
    75  H    0.064980
    76  H    0.076943
    77  H    0.072990
    78  H    0.073755
    79  H    0.055787
    80  H    0.071116
    81  H    0.076879
    82  H    0.060933
    83  H    0.059060
    84  H    0.057488
    85  H    0.055279
    86  H    0.060033
    87  H    0.054492
    88  H    0.054421
    89  H    0.049036
    90  H    0.052793
    91  H    0.046843
    92  H    0.084511
    93  H    0.056151
    94  H    0.057422
    95  H    0.080737
    96  H    0.046642
    97  H    0.058121
    98  H    0.069391
    99  H    0.094986
   100  H    0.058061
   101  H    0.089807
   102  H    0.102121
   103  H    0.044410
   104  H    0.061636
   105  H    0.078333
   106  H    0.073993
   107  H    0.067193
   108  H    0.072127
   109  H    0.075288
   110  H    0.054201
 Sum of Mulliken charges =  -0.00000
 Mulliken charges with hydrogens summed into heavy atoms:
               1
     1  C   -0.005564
     2  C   -0.001527
     3  C   -0.009181
     4  C   -0.034194
     5  C    0.088092
     6  C   -0.013427
     7  N   -0.286944
     8  C    0.018355
     9  C    0.127630
    10  C    0.098065
    11  C   -0.009816
    12  C   -0.006517
    13  C    0.028042
    14  N   -0.291115
    15  C    0.102449
    16  C   -0.003688
    17  C   -0.000422
    18  C    0.017155
    19  C    0.090844
    20  C    0.009126
    21  C   -0.001626
    22  C    0.319434
    23  O   -0.276207
    24  O   -0.255771
    25  C    0.167806
    26  C    0.124526
    27  C    0.009715
    28  C    0.000445
    29  C   -0.022388
    30  C   -0.006946
    31  C   -0.030192
    32  C    0.095340
    33  C   -0.013918
    34  N   -0.281393
    35  C    0.015236
    36  C    0.135096
    37  C    0.093977
    38  C   -0.012473
    39  C   -0.005758
    40  C    0.040107
    41  N   -0.081315
    42  C    0.137319
    43  C    0.041020
    44  C    0.005674
    45  C    0.066274
    46  C    0.142570
    47  C    0.047981
    48  C    0.003198
    49  C    0.327119
    50  O   -0.275256
    51  O   -0.255819
    52  C    0.165531
    53  C    0.124680
    54  O   -0.461352
 Electronic spatial extent (au):  <R**2>=          38097.8976
 Charge=             -0.0000 electrons
 Dipole moment (field-independent basis, Debye):
    X=             -2.9210    Y=             -0.5463    Z=             -3.9592  Tot=              4.9503
 Quadrupole moment (field-independent basis, Debye-Ang):
   XX=           -279.4081   YY=           -299.6152   ZZ=           -297.8409
   XY=             -8.3861   XZ=             -8.9085   YZ=             -6.8362
 Traceless Quadrupole moment (field-independent basis, Debye-Ang):
   XX=             12.8799   YY=             -7.3272   ZZ=             -5.5528
   XY=             -8.3861   XZ=             -8.9085   YZ=             -6.8362
 Octapole moment (field-independent basis, Debye-Ang**2):
  XXX=            -21.0143  YYY=             57.0288  ZZZ=             22.6120  XYY=             -5.8839
  XXY=            -18.9221  XXZ=            -19.9255  XZZ=             -0.8334  YZZ=             45.7199
  YYZ=            -16.1892  XYZ=             14.4212
 Hexadecapole moment (field-independent basis, Debye-Ang**3):
 XXXX=         -31816.7798 YYYY=          -7838.7383 ZZZZ=          -6680.3116 XXXY=           -377.7099
 XXXZ=            215.6747 YYYX=           -252.6050 YYYZ=           -160.8816 ZZZX=            241.5071
 ZZZY=             63.1327 XXYY=          -6822.9360 XXZZ=          -6535.9758 YYZZ=          -2434.9293
 XXYZ=            -64.3114 YYXZ=            150.9479 ZZXY=            114.8260
 N-N= 8.091064904739D+03 E-N=-2.155894265150D+04  KE= 2.279082023228D+03
 ******************************Gaussian NBO Version 3.1******************************
             N A T U R A L   A T O M I C   O R B I T A L   A N D
          N A T U R A L   B O N D   O R B I T A L   A N A L Y S I S
 ******************************Gaussian NBO Version 3.1******************************
       /RESON  / : Allow strongly delocalized NBO set
       /NLMO   / : Form Natural Localized Molecular Orbitals
       /NMR /    : Analyze NMR Sheilding Tensor 

 Analyzing the SCF density

 Job title: Pleiokomenine_C_2                                               

 Storage needed:    355564 in NPA,    438187 in NBO,   2133784 in NLMO ( 104796000 available)
 GSVD:  LWork=     -108884 too small for GESVD, short by      536270 words or      536270 for optimal perf.


 NATURAL POPULATIONS:  Natural atomic orbital occupancies 
                                                          
   NAO  Atom  No  lang   Type(AO)    Occupancy      Energy
 ----------------------------------------------------------
     1    C    1  S      Cor( 1S)     1.99993     -10.94448
     2    C    1  S      Val( 2S)     1.08076      -0.17678
     3    C    1  px     Val( 2p)     0.99008       0.08392
     4    C    1  py     Val( 2p)     0.99869       0.08476
     5    C    1  pz     Val( 2p)     0.98573       0.15654
 
     6    C    2  S      Cor( 1S)     1.99991     -10.95447
     7    C    2  S      Val( 2S)     1.07893      -0.18280
     8    C    2  px     Val( 2p)     0.97095       0.09815
     9    C    2  py     Val( 2p)     0.97685       0.09471
    10    C    2  pz     Val( 2p)     0.96131       0.17713
 
    11    C    3  S      Cor( 1S)     1.99994     -10.94702
    12    C    3  S      Val( 2S)     1.08418      -0.18255
    13    C    3  px     Val( 2p)     0.99061       0.08424
    14    C    3  py     Val( 2p)     0.98731       0.08936
    15    C    3  pz     Val( 2p)     0.97422       0.15846
 
    16    C    4  S      Cor( 1S)     1.99993     -10.94055
    17    C    4  S      Val( 2S)     1.07171      -0.17339
    18    C    4  px     Val( 2p)     1.02164       0.07324
    19    C    4  py     Val( 2p)     1.01814       0.07909
    20    C    4  pz     Val( 2p)     0.97759       0.15952
 
    21    C    5  S      Cor( 1S)     1.99985     -10.98783
    22    C    5  S      Val( 2S)     1.05983      -0.18494
    23    C    5  px     Val( 2p)     0.93393       0.09142
    24    C    5  py     Val( 2p)     0.90729       0.10315
    25    C    5  pz     Val( 2p)     0.98789       0.14662
 
    26    C    6  S      Cor( 1S)     1.99990     -10.94656
    27    C    6  S      Val( 2S)     1.08421      -0.18824
    28    C    6  px     Val( 2p)     1.00054       0.08653
    29    C    6  py     Val( 2p)     0.98616       0.10729
    30    C    6  pz     Val( 2p)     0.95338       0.14994
 
    31    N    7  S      Cor( 1S)     1.99998     -15.26962
    32    N    7  S      Val( 2S)     1.40579      -0.59578
    33    N    7  px     Val( 2p)     1.22875      -0.04889
    34    N    7  py     Val( 2p)     1.57679      -0.18350
    35    N    7  pz     Val( 2p)     1.06401       0.02006
 
    36    C    8  S      Cor( 1S)     1.99996     -11.00681
    37    C    8  S      Val( 2S)     1.10937      -0.23220
    38    C    8  px     Val( 2p)     0.94170       0.10455
    39    C    8  py     Val( 2p)     0.97587       0.07518
    40    C    8  pz     Val( 2p)     0.95301       0.11629
 
    41    C    9  S      Cor( 1S)     1.99996     -11.05062
    42    C    9  S      Val( 2S)     1.11204      -0.25681
    43    C    9  px     Val( 2p)     0.93534       0.09225
    44    C    9  py     Val( 2p)     0.93287       0.08313
    45    C    9  pz     Val( 2p)     0.84877       0.11607
 
    46    C   10  S      Cor( 1S)     1.99993     -11.01715
    47    C   10  S      Val( 2S)     1.09638      -0.21806
    48    C   10  px     Val( 2p)     0.92198       0.11088
    49    C   10  py     Val( 2p)     0.99693       0.08504
    50    C   10  pz     Val( 2p)     0.91033       0.09597
 
    51    C   11  S      Cor( 1S)     1.99994     -10.98120
    52    C   11  S      Val( 2S)     1.10376      -0.21556
    53    C   11  px     Val( 2p)     0.99855       0.08080
    54    C   11  py     Val( 2p)     0.99609       0.08189
    55    C   11  pz     Val( 2p)     0.98674       0.08694
 
    56    C   12  S      Cor( 1S)     1.99996     -10.97865
    57    C   12  S      Val( 2S)     1.09137      -0.20086
    58    C   12  px     Val( 2p)     1.00069       0.08930
    59    C   12  py     Val( 2p)     1.00740       0.08756
    60    C   12  pz     Val( 2p)     0.97435       0.08707
 
    61    C   13  S      Cor( 1S)     1.99998     -11.00451
    62    C   13  S      Val( 2S)     1.10490      -0.22813
    63    C   13  px     Val( 2p)     0.95650       0.10028
    64    C   13  py     Val( 2p)     0.94051       0.10784
    65    C   13  pz     Val( 2p)     0.94772       0.11010
 
    66    N   14  S      Cor( 1S)     1.99999     -15.23714
    67    N   14  S      Val( 2S)     1.42135      -0.57862
    68    N   14  px     Val( 2p)     1.50405      -0.13484
    69    N   14  py     Val( 2p)     1.29499      -0.04927
    70    N   14  pz     Val( 2p)     1.05916       0.04675
 
    71    C   15  S      Cor( 1S)     1.99994     -11.00662
    72    C   15  S      Val( 2S)     1.06938      -0.18808
    73    C   15  px     Val( 2p)     0.97231       0.09540
    74    C   15  py     Val( 2p)     1.02216       0.07436
    75    C   15  pz     Val( 2p)     0.89744       0.11713
 
    76    C   16  S      Cor( 1S)     1.99997     -10.97583
    77    C   16  S      Val( 2S)     1.08107      -0.18932
    78    C   16  px     Val( 2p)     0.98225       0.09281
    79    C   16  py     Val( 2p)     1.01268       0.09131
    80    C   16  pz     Val( 2p)     0.99866       0.09017
 
    81    C   17  S      Cor( 1S)     1.99996     -10.97948
    82    C   17  S      Val( 2S)     1.08586      -0.19495
    83    C   17  px     Val( 2p)     0.99804       0.09048
    84    C   17  py     Val( 2p)     1.01048       0.08785
    85    C   17  pz     Val( 2p)     0.97393       0.09200
 
    86    C   18  S      Cor( 1S)     1.99995     -10.97616
    87    C   18  S      Val( 2S)     1.09200      -0.19645
    88    C   18  px     Val( 2p)     1.00231       0.08726
    89    C   18  py     Val( 2p)     1.00657       0.09390
    90    C   18  pz     Val( 2p)     0.97414       0.09052
 
    91    C   19  S      Cor( 1S)     1.99994     -10.99920
    92    C   19  S      Val( 2S)     1.07151      -0.18356
    93    C   19  px     Val( 2p)     1.01291       0.08350
    94    C   19  py     Val( 2p)     0.89694       0.12663
    95    C   19  pz     Val( 2p)     0.98475       0.08298
 
    96    C   20  S      Cor( 1S)     1.99992     -10.98496
    97    C   20  S      Val( 2S)     1.09964      -0.21271
    98    C   20  px     Val( 2p)     1.02334       0.07422
    99    C   20  py     Val( 2p)     0.98568       0.08185
   100    C   20  pz     Val( 2p)     0.96516       0.09302
 
   101    C   21  S      Cor( 1S)     1.99994     -11.00935
   102    C   21  S      Val( 2S)     1.11073      -0.23992
   103    C   21  px     Val( 2p)     1.00814       0.06322
   104    C   21  py     Val( 2p)     0.96986       0.07921
   105    C   21  pz     Val( 2p)     0.99590       0.06812
 
   106    C   22  S      Cor( 1S)     1.99991     -11.11317
   107    C   22  S      Val( 2S)     1.05480      -0.26213
   108    C   22  px     Val( 2p)     0.86888       0.01334
   109    C   22  py     Val( 2p)     0.90085       0.08132
   110    C   22  pz     Val( 2p)     0.77294       0.17667
 
   111    O   23  S      Cor( 1S)     1.99999     -20.09989
   112    O   23  S      Val( 2S)     1.80802      -1.05958
   113    O   23  px     Val( 2p)     1.30498      -0.13955
   114    O   23  py     Val( 2p)     1.68388      -0.25963
   115    O   23  pz     Val( 2p)     1.51337      -0.18569
 
   116    O   24  S      Cor( 1S)     1.99999     -20.21678
   117    O   24  S      Val( 2S)     1.73034      -1.02964
   118    O   24  px     Val( 2p)     1.75721      -0.33705
   119    O   24  py     Val( 2p)     1.32644      -0.14727
   120    O   24  pz     Val( 2p)     1.45340      -0.20485
 
   121    C   25  S      Cor( 1S)     1.99984     -11.04734
   122    C   25  S      Val( 2S)     1.07701      -0.22907
   123    C   25  px     Val( 2p)     1.00211       0.04706
   124    C   25  py     Val( 2p)     0.84292       0.07890
   125    C   25  pz     Val( 2p)     1.04359       0.03172
 
   126    C   26  S      Cor( 1S)     1.99992     -11.01692
   127    C   26  S      Val( 2S)     1.06547      -0.19762
   128    C   26  px     Val( 2p)     0.98267       0.07024
   129    C   26  py     Val( 2p)     1.03253       0.05829
   130    C   26  pz     Val( 2p)     0.93595       0.08093
 
   131    C   27  S      Cor( 1S)     1.99995     -10.98205
   132    C   27  S      Val( 2S)     1.08406      -0.18797
   133    C   27  px     Val( 2p)     0.97742       0.10266
   134    C   27  py     Val( 2p)     1.00391       0.08739
   135    C   27  pz     Val( 2p)     1.02186       0.08612
 
   136    C   28  S      Cor( 1S)     1.99990     -10.95459
   137    C   28  S      Val( 2S)     1.08039      -0.18290
   138    C   28  px     Val( 2p)     0.95549       0.12973
   139    C   28  py     Val( 2p)     0.95865       0.17791
   140    C   28  pz     Val( 2p)     0.99004       0.06675
 
   141    C   29  S      Cor( 1S)     1.99992     -10.94412
   142    C   29  S      Val( 2S)     1.07739      -0.17561
   143    C   29  px     Val( 2p)     0.98629       0.11646
   144    C   29  py     Val( 2p)     0.98392       0.15258
   145    C   29  pz     Val( 2p)     1.01677       0.04996
 
   146    C   30  S      Cor( 1S)     1.99994     -10.94449
   147    C   30  S      Val( 2S)     1.08471      -0.18032
   148    C   30  px     Val( 2p)     0.97812       0.12483
   149    C   30  py     Val( 2p)     0.97505       0.15761
   150    C   30  pz     Val( 2p)     0.99610       0.06005
 
   151    C   31  S      Cor( 1S)     1.99993     -10.93763
   152    C   31  S      Val( 2S)     1.07135      -0.16924
   153    C   31  px     Val( 2p)     1.00663       0.11200
   154    C   31  py     Val( 2p)     0.97606       0.16146
   155    C   31  pz     Val( 2p)     1.03471       0.04903
 
   156    C   32  S      Cor( 1S)     1.99985     -10.98665
   157    C   32  S      Val( 2S)     1.05949      -0.18202
   158    C   32  px     Val( 2p)     0.90609       0.13157
   159    C   32  py     Val( 2p)     0.97150       0.16182
   160    C   32  pz     Val( 2p)     0.94385       0.06028
 
   161    C   33  S      Cor( 1S)     1.99990     -10.94734
   162    C   33  S      Val( 2S)     1.08564      -0.19146
   163    C   33  px     Val( 2p)     0.98642       0.12741
   164    C   33  py     Val( 2p)     0.94512       0.14820
   165    C   33  pz     Val( 2p)     1.00536       0.06587
 
   166    N   34  S      Cor( 1S)     1.99998     -15.26415
   167    N   34  S      Val( 2S)     1.39243      -0.58307
   168    N   34  px     Val( 2p)     1.11793       0.00773
   169    N   34  py     Val( 2p)     1.11719       0.00140
   170    N   34  pz     Val( 2p)     1.64389      -0.20389
 
   171    C   35  S      Cor( 1S)     1.99996     -11.01054
   172    C   35  S      Val( 2S)     1.10374      -0.23406
   173    C   35  px     Val( 2p)     0.95829       0.09162
   174    C   35  py     Val( 2p)     0.95285       0.11574
   175    C   35  pz     Val( 2p)     0.97401       0.07314
 
   176    C   36  S      Cor( 1S)     1.99996     -11.04777
   177    C   36  S      Val( 2S)     1.11438      -0.25400
   178    C   36  px     Val( 2p)     0.94202       0.09410
   179    C   36  py     Val( 2p)     0.85946       0.12474
   180    C   36  pz     Val( 2p)     0.90525       0.09258
 
   181    C   37  S      Cor( 1S)     1.99991     -11.03150
   182    C   37  S      Val( 2S)     1.10906      -0.24829
   183    C   37  px     Val( 2p)     0.98266       0.06404
   184    C   37  py     Val( 2p)     0.88348       0.08427
   185    C   37  pz     Val( 2p)     0.95624       0.07550
 
   186    C   38  S      Cor( 1S)     1.99993     -10.97716
   187    C   38  S      Val( 2S)     1.10887      -0.21600
   188    C   38  px     Val( 2p)     1.01452       0.08230
   189    C   38  py     Val( 2p)     0.99093       0.09161
   190    C   38  pz     Val( 2p)     0.97019       0.08748
 
   191    C   39  S      Cor( 1S)     1.99996     -10.97873
   192    C   39  S      Val( 2S)     1.09077      -0.20028
   193    C   39  px     Val( 2p)     1.01889       0.08380
   194    C   39  py     Val( 2p)     0.97865       0.08622
   195    C   39  pz     Val( 2p)     0.98622       0.09258
 
   196    C   40  S      Cor( 1S)     1.99998     -11.01127
   197    C   40  S      Val( 2S)     1.09910      -0.22583
   198    C   40  px     Val( 2p)     0.93500       0.11002
   199    C   40  py     Val( 2p)     0.94828       0.10469
   200    C   40  pz     Val( 2p)     0.95873       0.09844
 
   201    N   41  S      Cor( 1S)     1.99999     -15.41609
   202    N   41  S      Val( 2S)     1.39312      -0.65622
   203    N   41  px     Val( 2p)     1.22676      -0.13075
   204    N   41  py     Val( 2p)     1.15750      -0.09785
   205    N   41  pz     Val( 2p)     1.18959      -0.10537
 
   206    C   42  S      Cor( 1S)     1.99992     -11.03725
   207    C   42  S      Val( 2S)     1.09119      -0.23418
   208    C   42  px     Val( 2p)     0.99206       0.05775
   209    C   42  py     Val( 2p)     0.94105       0.06574
   210    C   42  pz     Val( 2p)     0.92593       0.07565
 
   211    C   43  S      Cor( 1S)     1.99995     -10.99111
   212    C   43  S      Val( 2S)     1.08735      -0.20515
   213    C   43  px     Val( 2p)     0.96527       0.09235
   214    C   43  py     Val( 2p)     0.99683       0.07919
   215    C   43  pz     Val( 2p)     1.01388       0.08219
 
   216    C   44  S      Cor( 1S)     1.99994     -10.98688
   217    C   44  S      Val( 2S)     1.09180      -0.20542
   218    C   44  px     Val( 2p)     1.00535       0.08456
   219    C   44  py     Val( 2p)     0.97464       0.09116
   220    C   44  pz     Val( 2p)     0.99059       0.08478
 
   221    C   45  S      Cor( 1S)     1.99993     -10.98321
   222    C   45  S      Val( 2S)     1.09875      -0.20586
   223    C   45  px     Val( 2p)     0.99073       0.08716
   224    C   45  py     Val( 2p)     0.97998       0.08617
   225    C   45  pz     Val( 2p)     0.99773       0.09146
 
   226    C   46  S      Cor( 1S)     1.99993     -11.03001
   227    C   46  S      Val( 2S)     1.09475      -0.23133
   228    C   46  px     Val( 2p)     0.90960       0.08768
   229    C   46  py     Val( 2p)     0.97585       0.05639
   230    C   46  pz     Val( 2p)     0.97439       0.06347
 
   231    C   47  S      Cor( 1S)     1.99991     -10.97262
   232    C   47  S      Val( 2S)     1.10313      -0.20019
   233    C   47  px     Val( 2p)     0.98345       0.10372
   234    C   47  py     Val( 2p)     1.00719       0.09993
   235    C   47  pz     Val( 2p)     0.96684       0.10269
 
   236    C   48  S      Cor( 1S)     1.99994     -11.00145
[...]

 Contributions to Isotropic shielding for atom   94 (    32.4125 ppm):
                         Standard Origin              Atomic Origin
 NLMO      Total    Paramagnetic  Diamagnetic   Paramagnetic  Diamagnetic
  102       1.6755       -0.1988       1.8743         0.7054       0.9701
  103       0.2973        1.2176      -0.9203        -0.5822       0.8795
  105       0.7017        2.6110      -1.9093        -0.4071       1.1088
  106      26.3256       -0.1190      26.4445         0.4967      25.8288
  107       1.9005        3.5615      -1.6610         0.0569       1.8436
  108       0.0576       -0.3740       0.4316        -1.0687       1.1264
 Sum       30.9582        6.6983      24.2599        -0.7990      31.7572

 Contributions to Isotropic shielding for atom   95 (    31.1441 ppm):
                         Standard Origin              Atomic Origin
 NLMO      Total    Paramagnetic  Diamagnetic   Paramagnetic  Diamagnetic
   89      -0.4877        0.3338      -0.8215        -1.0590       0.5713
   99      -0.6197        0.5287      -1.1485        -1.4885       0.8688
  102       1.6668       -0.6367       2.3035         0.7629       0.9039
  103       0.0583        1.2373      -1.1790        -0.9255       0.9838
  105       0.6491        2.5945      -1.9454        -0.5258       1.1748
  106       1.7682        3.4489      -1.6807        -0.0656       1.8337
  107      25.7678       -0.1887      25.9565         0.5323      25.2355
  109       0.1058       -0.1531       0.2589        -0.9033       1.0091
  116      -0.2707       -1.0374       0.7667        -0.5948       0.3241
  195       0.1922       -0.8419       1.0340         1.1137      -0.9216
 Sum       28.8300        5.2853      23.5447        -3.1534      31.9834

 Contributions to Isotropic shielding for atom   96 (    32.7742 ppm):
                         Standard Origin              Atomic Origin
 NLMO      Total    Paramagnetic  Diamagnetic   Paramagnetic  Diamagnetic
   90      -0.1506        1.0443      -1.1949        -0.8217       0.6711
   94      -0.1707        0.3845      -0.5552        -1.1134       0.9428
   97       1.8498       -0.9682       2.8179         0.8937       0.9560
  105       1.4333       -0.4862       1.9195         0.2968       1.1365
  106       0.0291       -0.0260       0.0551        -0.9932       1.0224
  108      26.5177        0.2796      26.2381         0.4460      26.0716
  109       1.5048        3.6425      -2.1377        -0.3353       1.8400
 Sum       31.0133        3.8705      27.1428        -1.6271      32.6405

 Contributions to Isotropic shielding for atom   97 (    32.1612 ppm):
                         Standard Origin              Atomic Origin
 NLMO      Total    Paramagnetic  Diamagnetic   Paramagnetic  Diamagnetic
   89      -0.3882        0.3150      -0.7032        -1.1084       0.7202
   94      -0.1693        1.2742      -1.4435        -0.6961       0.5268
   97       0.8389        2.0235      -1.1846        -0.1322       0.9711
   98      -0.3329        1.6137      -1.9466        -1.3178       0.9849
  105       0.6967        2.7157      -2.0191        -0.3830       1.0797
  107       0.0734        0.8268      -0.7534        -1.0395       1.1129
  108       1.9777        2.6971      -0.7193         0.2511       1.7267
  109      26.4667       -0.3909      26.8575         0.7119      25.7548
 Sum       29.1631       11.0753      18.0878        -3.7140      32.8770

 Contributions to Isotropic shielding for atom   98 (    32.8105 ppm):
                         Standard Origin              Atomic Origin
 NLMO      Total    Paramagnetic  Diamagnetic   Paramagnetic  Diamagnetic
   71      -0.1061       -1.0055       0.8995        -1.1256       1.0196
   80       0.2694       -0.8191       1.0885        -0.8287       1.0981
   81       0.2980       -0.8864       1.1844        -0.5003       0.7982
   85       1.0090        0.4880       0.5209         0.3821       0.6269
  110       1.4231       -0.9568       2.3799         0.6124       0.8106
  111      25.9027        0.5256      25.3771         0.4778      25.4249
  112       1.8777        1.1211       0.7565        -0.0478       1.9254
  121       0.0521       -1.3031       1.3551        -0.7508       0.8029
  191      -0.3436        0.7175      -1.0611         0.3334      -0.6770
 Sum       30.3821       -2.1187      32.5008        -1.4475      31.8296

 Contributions to Isotropic shielding for atom   99 (    31.4168 ppm):
                         Standard Origin              Atomic Origin
 NLMO      Total    Paramagnetic  Diamagnetic   Paramagnetic  Diamagnetic
   85       0.2337        1.9950      -1.7613        -0.5698       0.8035
   87       0.0137       -1.0652       1.0789        -0.8242       0.8379
  100      -0.2228        0.1723      -0.3951        -1.0716       0.8488
  110       1.0718        0.7464       0.3255         0.3514       0.7205
  111       1.9445        0.4842       1.4604         0.0218       1.9228
  112      25.4669        0.0212      25.4457         0.5607      24.9062
  114       0.0574        0.0979      -0.0405        -0.9430       1.0004
  115       0.0675       -1.0369       1.1044        -0.5048       0.5723
  118       0.8041       -1.4226       2.2267        -0.0270       0.8311
  120       1.4681       -0.8026       2.2707         0.6110       0.8571
  121      -0.2052       -3.6740       3.4688        -1.2419       1.0367
  123       0.2896       -1.2266       1.5161        -0.4703       0.7599
  191      -0.7707        1.6785      -2.4493         0.1897      -0.9604
  195      -0.0851        0.7779      -0.8630         0.9361      -1.0211
 Sum       30.1337       -3.2546      33.3882        -2.9819      33.1156

 Contributions to Isotropic shielding for atom  100 (    32.2853 ppm):
                         Standard Origin              Atomic Origin
 NLMO      Total    Paramagnetic  Diamagnetic   Paramagnetic  Diamagnetic
   71       0.1926       -0.7211       0.9138        -0.9444       1.1370
   84       0.1549       -0.8576       1.0125        -0.6612       0.8161
   89       0.9504       -0.6058       1.5561         0.0450       0.9054
   99       0.5874       -0.5692       1.1566        -0.1207       0.7081
  103       0.1470       -0.8555       1.0026        -0.5851       0.7321
  104      -0.0290       -1.1818       1.1528        -0.8314       0.8024
  110       1.0183       -0.5969       1.6152         0.1829       0.8354
  113      26.2343        0.6829      25.5515         0.5728      25.6615
  114       1.6617       -0.3601       2.0219        -0.1793       1.8410
 Sum       30.9178       -5.0651      35.9829        -2.5212      33.4389

 Contributions to Isotropic shielding for atom  101 (    31.2569 ppm):
                         Standard Origin              Atomic Origin
 NLMO      Total    Paramagnetic  Diamagnetic   Paramagnetic  Diamagnetic
  100      -0.0314        1.5682      -1.5996        -0.7956       0.7642
  101       0.1189       -0.9673       1.0862        -0.8988       1.0178
  103      -0.0531       -1.2021       1.1489        -0.8783       0.8252
  112       0.1565       -0.4736       0.6301        -0.8757       1.0322
  113       1.9968       -0.6137       2.6105         0.3098       1.6870
  114      25.7143        0.5774      25.1369         0.8469      24.8674
 Sum       27.9020       -1.1110      29.0130        -2.2918      30.1938

 Contributions to Isotropic shielding for atom  102 (    29.8984 ppm):
                         Standard Origin              Atomic Origin
 NLMO      Total    Paramagnetic  Diamagnetic   Paramagnetic  Diamagnetic
   87       0.3358       -0.6717       1.0075         0.2290       0.1068
   89      -0.6874        0.4120      -1.0994        -1.5867       0.8993
   97      -0.1924        0.8302      -1.0226        -1.0155       0.8231
   98       1.7153       -1.0424       2.7576         0.8085       0.9068
  115       1.1106        0.3004       0.8102         0.2378       0.8728
  116      25.2318        0.0565      25.1753         0.5945      24.6374
  117       1.0216        3.7712      -2.7495        -0.8978       1.9195
  118      -0.3578        0.1953      -0.5531        -1.3070       0.9492
  119       0.2912        1.1512      -0.8599        -0.2227       0.5140
  122       0.8817       -1.2830       2.1647        -0.3239       1.2056
  193      -1.1795        0.8604      -2.0399         0.2370      -1.4165
 Sum       28.1711        4.5801      23.5910        -3.2468      31.4180

 Contributions to Isotropic shielding for atom  103 (    31.8175 ppm):
                         Standard Origin              Atomic Origin
 NLMO      Total    Paramagnetic  Diamagnetic   Paramagnetic  Diamagnetic
   94      -0.3940        1.5498      -1.9438        -1.3596       0.9655
   97      -0.2167        1.5437      -1.7604        -0.8237       0.6070
   98       1.0628        1.5210      -0.4582         0.0835       0.9793
  115       0.5722        3.3716      -2.7994        -0.5371       1.1093
  116       1.8715        3.7216      -1.8501        -0.1720       2.0435
  117      26.9447       -0.7982      27.7429         0.8420      26.1026
  119      -0.2228        0.2401      -0.4629        -1.3633       1.1405
  122       0.2872       -0.4910       0.7782        -0.8302       1.1174
 Sum       29.9048       10.6585      19.2463        -4.1603      34.0651

 Contributions to Isotropic shielding for atom  104 (    31.4124 ppm):
                         Standard Origin              Atomic Origin
 NLMO      Total    Paramagnetic  Diamagnetic   Paramagnetic  Diamagnetic
   81      -0.7109        1.4272      -2.1381        -1.4061       0.6951
   82      -0.0993        0.3121      -0.4114        -1.0678       0.9685
   86      -0.4736        1.7875      -2.2611        -1.5928       1.1192
   87       1.4665        1.3708       0.0957         0.5430       0.9235
   93      -0.0720       -1.4512       1.3793        -0.8394       0.7675
  115       0.8211        4.2391      -3.4180        -0.4487       1.2699
  117      -0.1004       -0.3130       0.2126        -1.2488       1.1484
  118       0.5774        4.9438      -4.3664        -0.5370       1.1144
  119      26.2768       -0.9919      27.2688         0.5703      25.7065
  122      -0.2939       -0.1830      -0.1110        -1.6284       1.3345
  127      -0.2248       -2.1949       1.9701        -0.7037       0.4789
 Sum       27.1669        8.9465      18.2204        -8.3593      35.5262

 Contributions to Isotropic shielding for atom  105 (    30.5908 ppm):
                         Standard Origin              Atomic Origin
 NLMO      Total    Paramagnetic  Diamagnetic   Paramagnetic  Diamagnetic
  120      -0.5499        0.2348      -0.7846        -1.4557       0.9058
  121      -0.1684        0.5892      -0.7576        -1.7108       1.5423
  122      -0.2524        0.3736      -0.6260        -1.1447       0.8923
  123       2.7287       -5.3563       8.0850         1.3276       1.4011
  124      25.8094        1.0696      24.7398         0.7156      25.0938
  125       1.5814        0.3871       1.1944        -0.4541       2.0355
  126       1.4847        0.2385       1.2462        -0.3792       1.8639
  193       0.5664        1.0236      -0.4572         0.6090      -0.0426
  194       0.1509       -0.9354       1.0863        -0.4097       0.5605
 Sum       31.3509       -2.3754      33.7263        -2.9019      34.2528

 Contributions to Isotropic shielding for atom  106 (    30.6596 ppm):
                         Standard Origin              Atomic Origin
 NLMO      Total    Paramagnetic  Diamagnetic   Paramagnetic  Diamagnetic
  120      -0.5023        0.0890      -0.5913        -1.1307       0.6284
  121       0.0069        0.7094      -0.7025        -1.0374       1.0443
  123       0.6028        2.6582      -2.0554        -1.4848       2.0876
  124       1.7759        0.1128       1.6631        -0.2248       2.0007
  125      26.1590        0.3984      25.7606         0.8673      25.2916
  126       0.8028        3.7117      -2.9089        -1.1712       1.9739
  193       0.6264       -0.9230       1.5494         1.0949      -0.4685
 Sum       29.4714        6.7564      22.7150        -3.0866      32.5581

 Contributions to Isotropic shielding for atom  107 (    30.6040 ppm):
                         Standard Origin              Atomic Origin
 NLMO      Total    Paramagnetic  Diamagnetic   Paramagnetic  Diamagnetic
  120      -1.1283        0.6172      -1.7455        -2.0166       0.8883
  121      -0.3309        1.7074      -2.0383        -1.8921       1.5612
  122      -1.0818        0.4880      -1.5698        -1.8546       0.7728
  123       0.7879        1.3179      -0.5299        -0.7184       1.5063
  124       1.8731       -0.5561       2.4292         0.0018       1.8713
  125       1.1744        3.9676      -2.7932        -0.8562       2.0306
  126      26.4201        0.5359      25.8842         1.0493      25.3708
  191       0.4543       -1.3438       1.7981         1.2217      -0.7674
  193       1.3995       -0.6578       2.0573         1.4477      -0.0482
 Sum       29.5684        6.0763      23.4921        -3.6172      33.1856

 Contributions to Isotropic shielding for atom  108 (    31.4810 ppm):
                         Standard Origin              Atomic Origin
 NLMO      Total    Paramagnetic  Diamagnetic   Paramagnetic  Diamagnetic
   76      -0.5864        0.0804      -0.6668        -1.4244       0.8381
   81      -0.6276        1.6625      -2.2901        -1.3509       0.7233
   82       1.2766       -0.8693       2.1458         0.0766       1.1999
   86      -0.2657        0.9134      -1.1791        -1.0090       0.7432
   87      -0.2355        1.0930      -1.3285        -1.1326       0.8971
  119      -0.1706       -1.2663       1.0957        -0.7015       0.5309
  121      -0.1272        0.1941      -0.3213        -1.1961       1.0688
  127      26.0301        0.1318      25.8983         0.6017      25.4283
  128       1.7429        2.9611      -1.2182        -0.2473       1.9902
  129       1.1375        2.7103      -1.5728        -0.6737       1.8111
  190       1.3549        0.1012       1.2538         1.3342       0.0208
 Sum       29.5289        7.7121      21.8168        -5.7229      35.2518

 Contributions to Isotropic shielding for atom  109 (    30.7403 ppm):
                         Standard Origin              Atomic Origin
 NLMO      Total    Paramagnetic  Diamagnetic   Paramagnetic  Diamagnetic
   75      -0.5678        0.7404      -1.3081        -1.2740       0.7062
   76      -0.9215        0.2333      -1.1549        -2.2792       1.3576
   79      -0.3841        1.0728      -1.4568        -1.0156       0.6316
   82       1.8548       -1.8250       3.6797         0.6526       1.2021
  127       1.6018        2.9899      -1.3881        -0.3666       1.9684
  128      25.8747        0.2814      25.5933         0.5847      25.2899
  129       1.3721        2.1579      -0.7858        -0.4259       1.7980
 Sum       28.8300        5.6507      23.1793        -4.1240      32.9539

 Contributions to Isotropic shielding for atom  110 (    31.9354 ppm):
                         Standard Origin              Atomic Origin
 NLMO      Total    Paramagnetic  Diamagnetic   Paramagnetic  Diamagnetic
   75      -0.3694        0.8732      -1.2427        -0.9628       0.5934
   76      -1.1655        0.3591      -1.5246        -2.3352       1.1698
   79      -0.4646        1.1883      -1.6529        -0.9897       0.5251
   81      -0.4139        0.7432      -1.1571        -0.6610       0.2471
   82       1.6169       -1.8318       3.4487         0.8372       0.7797
   86      -0.1804        0.4320      -0.6125        -1.2477       1.0672
  127       1.7826        3.4981      -1.7155        -0.1202       1.9028
  128       1.8685        2.6261      -0.7576        -0.0338       1.9023
  129      26.7451        0.5637      26.1814         1.0062      25.7389
 Sum       29.4193        8.4520      20.9673        -4.5070      33.9263
 
 1\1\GINC-PCSN02\SP\RHF\STO-3G\C45H56N4O5\ABENIDD\30-May-2024\0\\# nmr=
 giao hf/sto-3g pop=nbo geom=connectivity\\Pleiokomenine_C_2\\0,1\C,0,0
 .,0.,0.\C,0,1.4022,0.,0.\C,0,2.0956,1.2287,0.\C,0,1.4105,2.4507,0.004\
 C,0,0.0266,2.4438,0.002\C,0,-0.6625,1.2184,0.0182\N,0,-0.8546,3.5577,-
 0.0145\C,0,-2.1401,1.4959,0.1447\C,0,-2.1307,2.9488,-0.4731\C,0,-3.164
 8,0.6343,-0.6065\C,0,-2.1133,2.8302,-2.0596\C,0,-3.3713,2.1216,-2.5783
 \C,0,-4.1627,1.5623,-1.3797\N,0,-3.7556,-0.2217,0.4232\C,0,-4.9885,-0.
 8933,0.0386\C,0,-6.0111,-0.0093,-0.675\C,0,-5.3774,0.7455,-1.8437\C,0,
 -2.4881,1.2985,1.6408\C,0,-3.7978,0.5218,1.6719\C,0,-4.6211,2.8176,-0.
 5614\C,0,-3.4238,3.7244,-0.1664\C,0,-3.5685,4.2932,1.2339\O,0,-4.3229,
 3.8606,2.0959\O,0,-2.796,5.4062,1.3834\C,0,-2.8616,5.9931,2.6829\C,0,-
 0.3485,4.7845,-0.6117\C,0,2.1641,-1.3091,0.0486\C,0,1.9649,-2.1352,1.3
 067\C,0,1.6879,-1.5403,2.5467\C,0,2.0895,-3.5418,1.2305\C,0,1.9259,-4.
 3586,2.3582\C,0,1.6447,-3.7643,3.5724\C,0,1.5051,-2.3607,3.6481\N,0,1.
 4894,-4.377,4.8446\C,0,1.0408,-2.0238,5.0476\C,0,1.7352,-3.2378,5.7589
 \C,0,1.4677,-0.7638,5.7782\C,0,3.3303,-2.9918,5.799\C,0,3.6835,-1.6237
 ,6.3903\C,0,2.4098,-0.9875,6.9699\N,0,0.182,-0.0875,6.2279\C,0,0.5083,
 1.327,6.5745\C,0,1.4818,1.3197,7.771\C,0,2.7108,0.3969,7.5949\C,0,-0.4
 987,-1.8514,4.8855\C,0,-0.7157,-0.3394,5.0729\C,0,1.854,-2.0486,7.9807
 \C,0,1.3757,-3.3629,7.2572\C,0,-0.0481,-3.7841,7.5901\O,0,-0.7933,-4.4
 184,6.8545\O,0,-0.3354,-3.509,8.8969\C,0,-1.6772,-3.8146,9.2717\C,0,2.
 0788,-5.6817,5.0668\O,0,-0.4336,-0.6518,7.3183\H,0,-0.56,-0.9314,0.037
 \H,0,3.1837,1.2394,0.0091\H,0,1.9701,3.3789,0.0124\H,0,-2.6649,-0.0258
 ,-1.3285\H,0,-1.2279,2.2898,-2.417\H,0,-2.0515,3.8244,-2.5206\H,0,-3.9
 86,2.8242,-3.1551\H,0,-3.0837,1.3231,-3.2734\H,0,-4.7201,-1.716,-0.636
 8\H,0,-5.4529,-1.3716,0.9095\H,0,-6.8284,-0.6354,-1.0521\H,0,-6.4621,0
 .6922,0.0352\H,0,-5.0686,0.0194,-2.607\H,0,-6.1258,1.3941,-2.3143\H,0,
 -1.7342,0.675,2.1425\H,0,-2.5234,2.2191,2.2221\H,0,-3.8284,-0.1512,2.5
 357\H,0,-4.6579,1.1887,1.7483\H,0,-5.2214,2.5312,0.3024\H,0,-5.3058,3.
 4158,-1.1797\H,0,-3.4775,4.6083,-0.8206\H,0,-2.1746,6.8435,2.7052\H,0,
 -3.8729,6.3588,2.8861\H,0,-2.5468,5.2746,3.4463\H,0,0.0822,4.6118,-1.6
 045\H,0,0.4175,5.2336,0.0294\H,0,-1.1485,5.5235,-0.7182\H,0,1.8593,-1.
 8948,-0.8288\H,0,3.2399,-1.1223,-0.0612\H,0,1.5713,-0.4654,2.6371\H,0,
 2.3107,-4.015,0.2754\H,0,2.021,-5.434,2.265\H,0,1.925,-0.0662,5.0608\H
 ,0,3.8061,-3.0783,4.8145\H,0,3.8041,-3.7795,6.4012\H,0,4.4582,-1.7363,
 7.1586\H,0,4.1151,-0.9861,5.6081\H,0,-0.4359,1.8214,6.8258\H,0,0.9443,
 1.798,5.6875\H,0,1.8217,2.3434,7.9658\H,0,0.9425,1.0016,8.672\H,0,3.41
 82,0.9296,6.9447\H,0,3.2175,0.2759,8.56\H,0,-0.9092,-2.1712,3.9206\H,0
 ,-1.0562,-2.3895,5.6513\H,0,-0.358,0.2597,4.2298\H,0,-1.7394,-0.069,5.
 3465\H,0,1.0965,-1.6212,8.6403\H,0,2.6655,-2.3249,8.6703\H,0,1.9684,-4
 .1875,7.6824\H,0,-2.3901,-3.3041,8.6162\H,0,-1.8331,-3.4575,10.2934\H,
 0,-1.8393,-4.8967,9.2545\H,0,1.9199,-6.0019,6.1012\H,0,1.6054,-6.4338,
 4.4266\H,0,3.1564,-5.6835,4.8706\\Version=ES64L-G16RevB.01\State=1-A\H
 F=-2300.2019816\RMSD=3.857e-09\Dipole=0.8562704,1.3403668,-1.1240195\Q
 uadrupole=2.3384387,3.3052008,-5.6436396,-5.5544435,10.9329876,-1.8106
 889\PG=C01 [X(C45H56N4O5)]\\@


 THE UNDERLYING PHYSICAL LAWS NECESSARY FOR THE 
 MATHEMATICAL THEORY OF A LARGE PART OF PHYSICS AND THE
 WHOLE OF CHEMISTRY ARE THUS COMPLETELY KNOWN, AND THE
 DIFFICULTY IS ONLY THAT THE EXACT APPLICATION OF THESE
 LAWS LEADS TO EQUATIONS MUCH TOO COMPLICATED 
 TO BE SOLUBLE.

                                        -- P. A. M. DIRAC, 1929
 Job cpu time:       0 days  0 hours 11 minutes 19.0 seconds.
 Elapsed time:       0 days  0 hours  1 minutes 55.1 seconds.
 File lengths (MBytes):  RWF=     67 Int=      0 D2E=      0 Chk=     10 Scr=      1
 Normal termination of Gaussian 16 at Thu May 30 10:11:05 2024.
