 Entering Gaussian System, Link 0=g16
 Input=2_pleiokomenine_2a_c_4.gjf
 Output=2_pleiokomenine_2a_c_4.log
 Initial command:
 /opt/gaussian/g16/l1.exe "/data/abenidd/Elvis/pleiokomenine_C/NMR_HF/2a/2_pleiokomenine_2a_c_4/Gau-28581.inp" -scrdir="/data/abenidd/Elvis/pleiokomenine_C/NMR_HF/2a/2_pleiokomenine_2a_c_4/"
 Entering Link 1 = /opt/gaussian/g16/l1.exe PID=     28583.
  
 Copyright (c) 1988-2017, Gaussian, Inc.  All Rights Reserved.
  
 This is part of the Gaussian(R) 16 program.  It is based on
 the Gaussian(R) 09 system (copyright 2009, Gaussian, Inc.),
 the Gaussian(R) 03 system (copyright 2003, Gaussian, Inc.),
 the Gaussian(R) 98 system (copyright 1998, Gaussian, Inc.),
 the Gaussian(R) 94 system (copyright 1995, Gaussian, Inc.),
 the Gaussian 92(TM) system (copyright 1992, Gaussian, Inc.),
 the Gaussian 90(TM) system (copyright 1990, Gaussian, Inc.),
 the Gaussian 88(TM) system (copyright 1988, Gaussian, Inc.),
 the Gaussian 86(TM) system (copyright 1986, Carnegie Mellon
 University), and the Gaussian 82(TM) system (copyright 1983,
 Carnegie Mellon University). Gaussian is a federally registered
 trademark of Gaussian, Inc.
  
 This software contains proprietary and confidential information,
 including trade secrets, belonging to Gaussian, Inc.
  
 This software is provided under written license and may be
 used, copied, transmitted, or stored only in accord with that
 written license.
  
 The following legend is applicable only to US Government
 contracts under FAR:
  
                    RESTRICTED RIGHTS LEGEND
  
 Use, reproduction and disclosure by the US Government is
 subject to restrictions as set forth in subparagraphs (a)
 and (c) of the Commercial Computer Software - Restricted
 Rights clause in FAR 52.227-19.
  
 Gaussian, Inc.
 340 Quinnipiac St., Bldg. 40, Wallingford CT 06492
  
  
 ---------------------------------------------------------------
 Warning -- This program may not be used in any manner that
 competes with the business of Gaussian, Inc. or will provide
 assistance to any competitor of Gaussian, Inc.  The licensee
 of this program is prohibited from giving any competitor of
 Gaussian, Inc. access to this program.  By using this program,
 the user acknowledges that Gaussian, Inc. is engaged in the
 business of creating and licensing software in the field of
 computational chemistry and represents and warrants to the
 licensee that it is not a competitor of Gaussian, Inc. and that
 it will not use this program in any manner prohibited above.
 ---------------------------------------------------------------
  

 Cite this work as:
 Gaussian 16, Revision B.01,
 M. J. Frisch, G. W. Trucks, H. B. Schlegel, G. E. Scuseria, 
 M. A. Robb, J. R. Cheeseman, G. Scalmani, V. Barone, 
 G. A. Petersson, H. Nakatsuji, X. Li, M. Caricato, A. V. Marenich, 
 J. Bloino, B. G. Janesko, R. Gomperts, B. Mennucci, H. P. Hratchian, 
 J. V. Ortiz, A. F. Izmaylov, J. L. Sonnenberg, D. Williams-Young, 
 F. Ding, F. Lipparini, F. Egidi, J. Goings, B. Peng, A. Petrone, 
 T. Henderson, D. Ranasinghe, V. G. Zakrzewski, J. Gao, N. Rega, 
 G. Zheng, W. Liang, M. Hada, M. Ehara, K. Toyota, R. Fukuda, 
 J. Hasegawa, M. Ishida, T. Nakajima, Y. Honda, O. Kitao, H. Nakai, 
 T. Vreven, K. Throssell, J. A. Montgomery, Jr., J. E. Peralta, 
 F. Ogliaro, M. J. Bearpark, J. J. Heyd, E. N. Brothers, K. N. Kudin, 
 V. N. Staroverov, T. A. Keith, R. Kobayashi, J. Normand, 
 K. Raghavachari, A. P. Rendell, J. C. Burant, S. S. Iyengar, 
 J. Tomasi, M. Cossi, J. M. Millam, M. Klene, C. Adamo, R. Cammi, 
 J. W. Ochterski, R. L. Martin, K. Morokuma, O. Farkas, 
 J. B. Foresman, and D. J. Fox, Gaussian, Inc., Wallingford CT, 2016.
 
 ******************************************
 Gaussian 16:  ES64L-G16RevB.01 20-Dec-2017
                30-May-2024 
 ******************************************
 %nprocshared=8
 Will use up to    8 processors via shared memory.
 ----------------------------------------------
 # nmr=giao hf/sto-3g pop=nbo geom=connectivity
 ----------------------------------------------
 1/38=1,57=2,172=1/1;
 2/12=2,17=6,18=5,40=1/2;
 3/6=3,11=9,25=1,30=1/1,2,3,8;
 4//1;
 5/5=2,38=5/2;
 8/6=1,10=90,11=11/1;
 10/13=100,45=16/2;
 6/7=2,8=2,9=2,10=2,28=1,40=1,64=1/1,7;
 99/9=1/99;
 -----------------
 Pleiokomenine_C_2
 -----------------
 Symbolic Z-matrix:
 Charge =  0 Multiplicity = 1
 C                     0.        0.        0. 
 C                     1.4012    0.        0. 
 C                     2.0873    1.2316    0. 
 C                     1.3948    2.4517   -0.0228 
 C                     0.0115    2.4389   -0.0786 
 C                    -0.6691    1.2114   -0.0553 
 N                    -0.8778    3.5423   -0.1893 
 C                    -2.1536    1.4709   -0.0663 
 C                    -2.105     2.9019   -0.7325 
 C                    -3.0898    0.5658   -0.8832 
 C                    -1.9474    2.7323   -2.3081 
 C                    -3.1436    1.9869   -2.9121 
 C                    -4.0291    1.4523   -1.7701 
 N                    -3.7509   -0.2849    0.1119 
 C                    -4.9422   -0.9773   -0.3615 
 C                    -5.909    -0.1282   -1.1853 
 C                    -5.1848    0.6016   -2.3154 
 C                    -2.6341    1.3105    1.3949 
 C                    -3.9223    0.5001    1.3273 
 C                    -4.5751    2.725    -1.0365 
 C                    -3.4303    3.6655   -0.5664 
 C                    -3.7086    4.2721    0.7974 
 O                    -4.5449    3.8611    1.5925 
 O                    -2.9532    5.3892    0.9913 
 C                    -3.1319    6.0029    2.2674 
 C                    -0.3393    4.7584   -0.7797 
 C                     2.1595   -1.31     -0.0387 
 C                     2.067    -1.9966   -1.3867 
 C                     0.9489   -2.7849   -1.6942 
 C                     3.0502   -1.7688   -2.3744 
 C                     2.9383   -2.3207   -3.6586 
 C                     1.8288   -3.0876   -3.9583 
 C                     0.8315   -3.2885   -2.9782 
 N                     1.5124   -3.7545   -5.1724 
 C                    -0.3334   -3.9811   -3.6488 
 C                     0.5145   -4.7514   -4.7203 
 C                    -1.2079   -4.9984   -2.9401 
 C                     1.3228   -5.9476   -4.0003 
 C                     0.3998   -6.8393   -3.1638 
 C                    -1.0604   -6.4432   -3.4374 
 N                    -2.6385   -4.5109   -3.113 
 C                    -3.4859   -5.2214   -2.1108 
 C                    -3.4576   -6.729    -2.4364 
 C                    -2.0405   -7.3215   -2.6211 
 C                    -1.3127   -2.8103   -3.9629 
 C                    -2.4784   -3.0411   -2.9852 
 C                    -1.2244   -6.5596   -4.9916 
 C                    -0.3463   -5.5031   -5.7613 
 C                    -1.1182   -4.6531   -6.76 
 O                    -0.8372   -3.5082   -7.0896 
 O                    -2.0823   -5.3993   -7.3765 
 C                    -2.892    -4.6607   -8.2894 
 C                     2.5913   -4.1012   -6.0753 
 O                    -3.1924   -4.724    -4.3516 
 H                    -0.566    -0.9245    0.0348 
 H                     3.175     1.2485    0.0069 
 H                     1.9505    3.3821   -0.0225 
 H                    -2.5134   -0.0999   -1.5401 
 H                    -1.0269    2.1956   -2.5696 
 H                    -1.8592    3.7124   -2.7943 
 H                    -3.7148    2.6604   -3.5635 
 H                    -2.7842    1.1719   -3.5527 
 H                    -4.6096   -1.8157   -0.9867 
 H                    -5.4757   -1.4381    0.4789 
 H                    -6.6828   -0.7762   -1.6136 
 H                    -6.4286    0.586    -0.5375 
 H                    -4.7986   -0.1414   -3.0254 
 H                    -5.8973    1.2232   -2.8707 
 H                    -1.9157    0.7252    1.9873 
 H                    -2.7488    2.2473    1.9385 
 H                    -4.0202   -0.1464    2.2061 
 H                    -4.8002    1.1478    1.3012 
 H                    -5.245     2.4544   -0.2201 
 H                    -5.2111    3.2921   -1.7314 
 H                    -3.4383    4.5285   -1.2499 
 H                    -4.155     6.3775    2.3706 
 H                    -2.8925    5.2989    3.0706 
 H                    -2.4441    6.8503    2.3348 
 H                     0.1641    4.5662   -1.7339 
 H                     0.3744    5.2307   -0.096 
 H                    -1.1355    5.4864   -0.9625 
 H                     3.2139   -1.1483    0.2201 
 H                     1.7718   -1.9759    0.7436 
 H                     0.1646   -2.941    -0.9623 
 H                     3.9069   -1.1363   -2.1504 
 H                     3.7047   -2.1244   -4.3992 
 H                    -1.0157   -4.9498   -1.8578 
 H                     2.1385   -5.5921   -3.3588 
 H                     1.8226   -6.5598   -4.7638 
 H                     0.5785   -7.8943   -3.4053 
 H                     0.6416   -6.7214   -2.0997 
 H                    -4.4967   -4.8088   -2.1958 
 H                    -3.0834   -5.0034   -1.1162 
 H                    -3.9803   -7.2787   -1.6452 
 H                    -4.0253   -6.9089   -3.3579 
 H                    -1.6244   -7.47     -1.6152 
 H                    -2.1179   -8.32     -3.0679 
 H                    -0.9031   -1.8026   -3.8252 
 H                    -1.6906   -2.8519   -4.9838 
 H                    -2.2258   -2.8154   -1.9444 
 H                    -3.4091   -2.5501   -3.2832 
 H                    -2.2744   -6.5434   -5.2897 
 H                    -0.887    -7.5605   -5.2993 
 H                     0.3311   -6.0743   -6.4146 
 H                    -3.3512   -3.7998   -7.7928 
 H                    -3.69     -5.3191   -8.6436 
 H                    -2.2982   -4.3412   -9.1513 
 H                     2.2054   -4.654    -6.9375 
 H                     3.0725   -3.1989   -6.4675 
 H                     3.3522   -4.7191   -5.5863 
 
 Stoichiometry    C45H56N4O5
 Framework group  C1[X(C45H56N4O5)]
 Deg. of freedom   324
 Full point group                 C1      NOp   1
 Largest Abelian subgroup         C1      NOp   1
 Largest concise Abelian subgroup C1      NOp   1
                         Standard orientation:                         
 ---------------------------------------------------------------------
 Center     Atomic      Atomic             Coordinates (Angstroms)
 Number     Number       Type             X           Y           Z
 ---------------------------------------------------------------------
      1          6           0        1.898058    1.806269   -1.283471
      2          6           0        1.615528    3.178418   -1.310790
      3          6           0        2.512842    4.076024   -0.697030
      4          6           0        3.667009    3.619538   -0.042629
      5          6           0        3.907142    2.257758    0.025834
      6          6           0        3.023868    1.368299   -0.605993
      7          7           0        4.958712    1.579579    0.700279
      8          6           0        3.535884   -0.038809   -0.435447
      9          6           0        4.394837    0.213582    0.865493
     10          6           0        2.553289   -1.191969   -0.175195
     11          6           0        3.429143    0.200890    2.131743
     12          6           0        2.740188   -1.159241    2.295200
     13          6           0        3.042725   -2.025834    1.057639
     14          7           0        2.470994   -1.909425   -1.451695
     15          6           0        1.891208   -3.243775   -1.373717
     16          6           0        2.386429   -4.105981   -0.213684
     17          6           0        2.286537   -3.360539    1.116180
     18          6           0        4.231734   -0.412676   -1.765007
     19          6           0        3.776062   -1.828532   -2.094387
     20          6           0        4.591464   -2.263956    1.085142
     21          6           0        5.387596   -0.929955    1.137244
     22          6           0        6.638731   -0.973639    0.278107
     23          8           0        6.861063   -1.799329   -0.598994
     24          8           0        7.523170   -0.012426    0.665376
     25          6           0        8.716148    0.035160   -0.116628
     26          6           0        5.576243    2.278866    1.817018
     27          6           0        0.341610    3.677556   -1.959335
     28          6           0       -0.894097    3.344829   -1.147299
     29          6           0       -1.485966    2.078898   -1.262326
     30          6           0       -1.396830    4.264179   -0.200631
     31          6           0       -2.483314    3.942646    0.625478
     32          6           0       -3.055004    2.689732    0.514469
     33          6           0       -2.530625    1.760850   -0.411688
     34          7           0       -4.161752    2.152911    1.225690
     35          6           0       -3.214940    0.435302   -0.164651
     36          6           0       -4.571783    1.031992    0.348522
     37          6           0       -3.538137   -0.546375   -1.275398
     38          6           0       -5.379053    1.666411   -0.895854
     39          6           0       -5.522669    0.671286   -2.051662
     40          6           0       -5.032569   -0.709647   -1.586084
     41          7           0       -2.926572   -1.872881   -0.850501
     42          6           0       -2.849843   -2.746466   -2.058087
     43          6           0       -4.286818   -3.023162   -2.546162
     44          6           0       -5.163549   -1.759974   -2.716575
     45          6           0       -2.190698   -0.336207    0.720879
     46          6           0       -1.658711   -1.435685   -0.215155
     47          6           0       -5.877934   -1.025674   -0.304887
     48          6           0       -5.553135   -0.038550    0.878237
     49          6           0       -5.184294   -0.724822    2.185416
     50          8           0       -4.443735   -0.268245    3.046523
     51          8           0       -5.926999   -1.858890    2.354696
     52          6           0       -5.601122   -2.595193    3.532063
     53          6           0       -5.124292    3.067997    1.804991
     54          8           0       -3.616135   -2.561219    0.117508
     55          1           0        1.252246    1.085562   -1.773139
     56          1           0        2.311201    5.144865   -0.715568
     57          1           0        4.337488    4.334269    0.420043
     58          1           0        1.547369   -0.806207    0.039802
     59          1           0        2.660895    0.981375    2.065507
     60          1           0        3.991348    0.424948    3.047434
     61          1           0        3.094563   -1.651358    3.209767
     62          1           0        1.660662   -1.011937    2.424379
     63          1           0        0.805143   -3.125676   -1.269182
     64          1           0        2.033359   -3.778162   -2.321058
     65          1           0        1.782448   -5.019458   -0.160043
     66          1           0        3.417110   -4.428016   -0.397262
     67          1           0        1.227298   -3.179783    1.341212
     68          1           0        2.674023   -3.992249    1.924387
     69          1           0        3.892216    0.234666   -2.586767
     70          1           0        5.315627   -0.306397   -1.753475
     71          1           0        3.693510   -1.967073   -3.177820
     72          1           0        4.484622   -2.571770   -1.725001
     73          1           0        4.909003   -2.899126    0.257962
     74          1           0        4.847586   -2.842785    1.984221
     75          1           0        5.771640   -0.838587    2.164944
     76          1           0        9.289272   -0.889166    0.005271
     77          1           0        8.479265    0.209864   -1.170869
     78          1           0        9.323895    0.869828    0.243470
     79          1           0        4.833899    2.654275    2.530351
     80          1           0        6.172863    3.123321    1.455329
     81          1           0        6.257155    1.616832    2.360529
     82          1           0        0.394955    4.762061   -2.120231
     83          1           0        0.252714    3.243342   -2.963965
     84          1           0       -1.091514    1.345396   -1.956266
     85          1           0       -0.925202    5.238369   -0.087996
     86          1           0       -2.844722    4.665237    1.347723
     87          1           0       -2.992469   -0.255873   -2.185635
     88          1           0       -4.922410    2.585703   -1.282697
     89          1           0       -6.378076    1.977769   -0.560400
     90          1           0       -6.567140    0.632082   -2.384565
     91          1           0       -4.937869    1.021491   -2.911918
     92          1           0       -2.341763   -3.668020   -1.755146
     93          1           0       -2.248175   -2.226543   -2.810706
     94          1           0       -4.246310   -3.567512   -3.496649
     95          1           0       -4.786425   -3.691570   -1.833819
     96          1           0       -4.867139   -1.292931   -3.665805
     97          1           0       -6.211976   -2.057327   -2.839070
     98          1           0       -1.356753    0.261476    1.107538
     99          1           0       -2.662199   -0.801978    1.585471
    100          1           0       -0.997141   -1.057157   -1.000682
    101          1           0       -1.207829   -2.282808    0.309416
    102          1           0       -5.802307   -2.076655   -0.019674
    103          1           0       -6.942158   -0.905265   -0.556376
    104          1           0       -6.498147    0.463748    1.136287
    105          1           0       -4.535196   -2.844238    3.552104
    106          1           0       -6.171755   -3.527881    3.517123
    107          1           0       -5.885049   -2.029509    4.424776
    108          1           0       -5.944347    2.514390    2.272884
    109          1           0       -4.659543    3.670757    2.592523
    110          1           0       -5.551723    3.742060    1.054771
 ---------------------------------------------------------------------
 Rotational constants (GHZ):           0.0967722           0.0333814           0.0295853
 Standard basis: STO-3G (5D, 7F)
 There are   326 symmetry adapted cartesian basis functions of A   symmetry.
 There are   326 symmetry adapted basis functions of A   symmetry.
   326 basis functions,   978 primitive gaussians,   326 cartesian basis functions
   197 alpha electrons      197 beta electrons
       nuclear repulsion energy      8162.6889639034 Hartrees.
 NAtoms=  110 NActive=  110 NUniq=  110 SFac= 1.00D+00 NAtFMM=   60 NAOKFM=T Big=T
 Integral buffers will be    131072 words long.
 Raffenetti 1 integral format.
 Two-electron integral symmetry is turned on.
 One-electron integrals computed using PRISM.
 NBasis=   326 RedAO= T EigKep=  1.72D-01  NBF=   326
 NBsUse=   326 1.00D-06 EigRej= -1.00D+00 NBFU=   326
 ExpMin= 1.69D-01 ExpMax= 1.31D+02 ExpMxC= 1.31D+02 IAcc=3 IRadAn=         5 AccDes= 0.00D+00
 Harris functional with IExCor=  205 and IRadAn=       5 diagonalized for initial guess.
 HarFok:  IExCor=  205 AccDes= 0.00D+00 IRadAn=         5 IDoV= 1 UseB2=F ITyADJ=14
 ICtDFT=  3500011 ScaDFX=  1.000000  1.000000  1.000000  1.000000
 FoFCou: FMM=F IPFlag=           0 FMFlag=      100000 FMFlg1=        2001
         NFxFlg=           0 DoJE=T BraDBF=F KetDBF=T FulRan=T
         wScrn=  0.000000 ICntrl=       500 IOpCl=  0 I1Cent=   200000004 NGrid=           0
         NMat0=    1 NMatS0=      1 NMatT0=    0 NMatD0=    1 NMtDS0=    0 NMtDT0=    0
 Petite list used in FoFCou.
 Requested convergence on RMS density matrix=1.00D-08 within 128 cycles.
 Requested convergence on MAX density matrix=1.00D-06.
 Requested convergence on             energy=1.00D-06.
 No special actions if energy rises.
 Integral accuracy reduced to 1.0D-05 until final iterations.
 Initial convergence to 1.0D-05 achieved.  Increase integral accuracy.
 SCF Done:  E(RHF) =  -2300.20192923     A.U. after   16 cycles
            NFock= 16  Conv=0.39D-08     -V/T= 2.0093
 Range of M.O.s used for correlation:     1   326
 NBasis=   326 NAE=   197 NBE=   197 NFC=     0 NFV=     0
 NROrb=    326 NOA=   197 NOB=   197 NVA=   129 NVB=   129
          Differentiating once with respect to magnetic field using GIAOs.
          Electric field/nuclear overlap derivatives assumed to be zero.
 FoFCou: FMM=F IPFlag=           0 FMFlag=      100000 FMFlg1=        2001
         NFxFlg=           0 DoJE=F BraDBF=F KetDBF=T FulRan=T
         wScrn=  0.000000 ICntrl=      6100 IOpCl=  0 I1Cent=           7 NGrid=         110
         NMat0=    1 NMatS0=      1 NMatT0=    0 NMatD0=    1 NMtDS0=    0 NMtDT0=    0
 Symmetry not used in FoFCou.
 FoFJK:  IHMeth= 1 ICntrl=    6127 DoSepK=F KAlg= 0 I1Cent=           0 FoldK=F
 IRaf=         1 NMat=       1 IRICut=       1 DoRegI=T DoRafI=F ISym2E= 0 IDoP0=0 IntGTp=1.
          There are     3 degrees of freedom in the 1st order CPHF.  IDoFFX=0 NUNeed=     3.
      3 vectors produced by pass  0 Test12= 8.47D-13 3.33D-08 XBig12= 1.77D+02 2.15D+00.
 AX will form     3 AO Fock derivatives at one time.
      3 vectors produced by pass  1 Test12= 8.47D-13 3.33D-08 XBig12= 7.87D-01 2.88D-01.
      3 vectors produced by pass  2 Test12= 8.47D-13 3.33D-08 XBig12= 1.97D-02 3.36D-02.
      3 vectors produced by pass  3 Test12= 8.47D-13 3.33D-08 XBig12= 3.95D-04 7.46D-03.
      3 vectors produced by pass  4 Test12= 8.47D-13 3.33D-08 XBig12= 1.51D-05 7.70D-04.
      3 vectors produced by pass  5 Test12= 8.47D-13 3.33D-08 XBig12= 2.48D-07 7.99D-05.
      3 vectors produced by pass  6 Test12= 8.47D-13 3.33D-08 XBig12= 6.24D-09 1.79D-05.
      3 vectors produced by pass  7 Test12= 8.47D-13 3.33D-08 XBig12= 2.41D-10 2.64D-06.
      3 vectors produced by pass  8 Test12= 8.47D-13 3.33D-08 XBig12= 4.85D-12 2.35D-07.
      1 vectors produced by pass  9 Test12= 8.47D-13 3.33D-08 XBig12= 8.58D-14 4.43D-08.
 InvSVY:  IOpt=1 It=  1 EMax= 3.55D-15
 Solved reduced A of dimension    28 with     3 vectors.
 Calculating GIAO nuclear magnetic shielding tensors.
 SCF GIAO Magnetic shielding tensor (ppm):
      1  C    Isotropic =   125.1445   Anisotropy =   150.0153
   XX=   117.9831   YX=   -24.0101   ZX=   -71.5131
   XY=   -29.9580   YY=    78.5924   ZY=   -34.6505
   XZ=   -65.6997   YZ=   -36.3600   ZZ=   178.8579
   Eigenvalues:    33.3563   116.9224   225.1547
      2  C    Isotropic =   120.8615   Anisotropy =   156.2624
   XX=    96.2929   YX=    24.8723   ZX=   -75.0800
   XY=    20.3606   YY=    90.7385   ZY=    -3.1851
   XZ=   -80.9376   YZ=    -3.3954   ZZ=   175.5530
   Eigenvalues:    41.9510    95.5970   225.0364
      3  C    Isotropic =   119.6830   Anisotropy =   149.2538
   XX=   134.5092   YX=    21.4563   ZX=   -49.4021
   XY=    20.7527   YY=    33.1987   ZY=    -5.2840
   XZ=   -44.5820   YZ=    -7.0188   ZZ=   191.3411
   Eigenvalues:    28.9069   110.9567   219.1855
      4  C    Isotropic =   133.5935   Anisotropy =   142.6754
   XX=   126.4381   YX=   -23.6085   ZX=   -65.1087
   XY=   -20.1453   YY=    89.7275   ZY=   -22.9969
   XZ=   -66.9342   YZ=   -33.4034   ZZ=   184.6150
   Eigenvalues:    52.3220   119.7481   228.7105
      5  C    Isotropic =   108.8552   Anisotropy =   127.2411
   XX=    92.0467   YX=    22.0611   ZX=   -67.1180
   XY=     9.3550   YY=    88.6728   ZY=    -0.9026
   XZ=   -70.5066   YZ=    -0.4514   ZZ=   145.8460
   Eigenvalues:    41.6493    91.2336   193.6826
      6  C    Isotropic =   117.6590   Anisotropy =   139.7753
   XX=   120.8741   YX=     1.2839   ZX=   -55.4949
   XY=     9.4650   YY=    50.3891   ZY=    -3.7793
   XZ=   -46.4127   YZ=    -3.3070   ZZ=   181.7138
   Eigenvalues:    49.9806    92.1539   210.8425
      7  N    Isotropic =   273.4797   Anisotropy =    81.5673
   XX=   269.9740   YX=   -14.9970   ZX=    26.3550
   XY=   -28.0552   YY=   280.0027   ZY=   -42.8760
   XZ=    15.9881   YZ=   -30.3408   ZZ=   270.4626
   Eigenvalues:   238.1660   254.4152   327.8580
      8  C    Isotropic =   196.1332   Anisotropy =    14.6993
   XX=   201.4059   YX=     2.6193   ZX=    -1.5852
   XY=     8.3834   YY=   195.2019   ZY=     5.0860
   XZ=     2.9433   YZ=     8.3356   ZZ=   191.7918
   Eigenvalues:   185.9898   196.4770   205.9328
      9  C    Isotropic =   181.2041   Anisotropy =    45.0406
   XX=   177.9260   YX=    21.9051   ZX=     7.8653
   XY=    10.8456   YY=   202.8380   ZY=     1.8058
   XZ=    19.1890   YZ=    -7.4505   ZZ=   162.8483
   Eigenvalues:   152.3798   180.0013   211.2312
     10  C    Isotropic =   190.0590   Anisotropy =    27.7088
   XX=   177.7584   YX=     6.7429   ZX=     0.5172
   XY=     4.1568   YY=   195.1745   ZY=    11.1117
   XZ=    -3.0757   YZ=    12.9392   ZZ=   197.2442
   Eigenvalues:   174.9430   186.7026   208.5316
     11  C    Isotropic =   213.9287   Anisotropy =    18.6553
   XX=   213.8981   YX=    -0.5717   ZX=   -11.6017
   XY=     5.5976   YY=   209.5661   ZY=    -0.0353
   XZ=    -8.1562   YZ=     0.2677   ZZ=   218.3218
   Eigenvalues:   205.0490   210.3715   226.3655
     12  C    Isotropic =   213.0718   Anisotropy =    19.7435
   XX=   208.1551   YX=     0.6711   ZX=    -2.1722
   XY=    -0.6704   YY=   214.8418   ZY=    11.6326
   XZ=    -2.6971   YZ=     9.3786   ZZ=   216.2186
   Eigenvalues:   204.2627   208.7186   226.2342
     13  C    Isotropic =   213.8394   Anisotropy =     8.7299
   XX=   218.2845   YX=     0.6612   ZX=    -4.8342
   XY=     1.2663   YY=   213.5952   ZY=    -1.7677
   XZ=    -0.8481   YZ=    -3.7064   ZZ=   209.6385
   Eigenvalues:   207.7954   214.0634   219.6593
     14  N    Isotropic =   302.0891   Anisotropy =    52.3810
   XX=   304.0453   YX=    36.7391   ZX=   -31.9680
   XY=    20.1448   YY=   296.3111   ZY=    31.3357
   XZ=   -23.4863   YZ=    38.9308   ZZ=   305.9109
   Eigenvalues:   240.7722   328.4854   337.0098
     15  C    Isotropic =   205.4042   Anisotropy =    33.0367
   XX=   201.7537   YX=    12.1990   ZX=     4.2095
   XY=    16.4638   YY=   219.4241   ZY=    -3.0823
   XZ=     5.7565   YZ=    -1.6886   ZZ=   195.0348
   Eigenvalues:   188.8417   199.9423   227.4287
     16  C    Isotropic =   224.3476   Anisotropy =     7.6691
   XX=   221.3885   YX=     3.6218   ZX=     3.3789
   XY=    -1.3672   YY=   224.3766   ZY=     2.0583
   XZ=     2.8613   YZ=     1.4570   ZZ=   227.2777
   Eigenvalues:   220.0132   223.5693   229.4603
     17  C    Isotropic =   215.5034   Anisotropy =    18.7422
   XX=   214.9188   YX=     5.6506   ZX=     2.5212
   XY=     9.7905   YY=   222.6081   ZY=     4.6125
   XZ=     0.0596   YZ=     1.7962   ZZ=   208.9833
   Eigenvalues:   208.2001   210.3119   227.9982
     18  C    Isotropic =   210.8947   Anisotropy =    36.4563
   XX=   195.2897   YX=    -5.6295   ZX=   -14.9713
   XY=     1.4907   YY=   217.0693   ZY=    12.3039
   XZ=   -11.8503   YZ=    13.6434   ZZ=   220.3252
   Eigenvalues:   189.0105   208.4747   235.1990
     19  C    Isotropic =   199.5142   Anisotropy =    44.0049
   XX=   212.7846   YX=    13.3752   ZX=   -24.6848
   XY=    14.9746   YY=   193.3170   ZY=     6.5628
   XZ=   -18.1110   YZ=     4.2012   ZZ=   192.4411
   Eigenvalues:   171.6340   198.0578   228.8508
     20  C    Isotropic =   212.2325   Anisotropy =    22.4586
   XX=   226.3900   YX=     2.8847   ZX=    -0.3398
   XY=     3.9608   YY=   210.9520   ZY=    -3.7240
   XZ=    -0.8404   YZ=    -5.6666   ZZ=   199.3554
   Eigenvalues:   197.6804   211.8121   227.2049
     21  C    Isotropic =   209.1247   Anisotropy =    11.0433
   XX=   214.2390   YX=    -0.0037   ZX=    -3.0755
   XY=    -7.6660   YY=   208.3544   ZY=    -3.2995
   XZ=    -5.5501   YZ=    -6.7424   ZZ=   204.7808
   Eigenvalues:   199.0660   211.8213   216.4869
     22  C    Isotropic =    96.4097   Anisotropy =    98.7363
   XX=    11.2870   YX=   -65.7593   ZX=    30.2615
   XY=   -80.0031   YY=   126.7829   ZY=    17.9595
   XZ=    15.7676   YZ=     7.0808   ZZ=   151.1593
   Eigenvalues:   -27.7791   154.7743   162.2340
     23  O    Isotropic =  -134.6386   Anisotropy =   887.3463
   XX=  -171.9334   YX=  -160.1521   ZX=   231.1987
   XY=  -171.3697   YY=  -149.4802   ZY=  -454.0482
   XZ=   212.3510   YZ=  -447.9227   ZZ=   -82.5021
   Eigenvalues:  -570.9632  -289.8781   456.9256
     24  O    Isotropic =   283.8906   Anisotropy =   139.8505
   XX=   245.3232   YX=    -3.5720   ZX=    77.7126
   XY=   103.4845   YY=   353.4462   ZY=   -69.5447
   XZ=   155.6068   YZ=     1.0539   ZZ=   252.9025
   Eigenvalues:   117.2683   357.2793   377.1243
     25  C    Isotropic =   197.3656   Anisotropy =    57.8550
   XX=   222.3643   YX=     3.6089   ZX=   -24.0902
   XY=     3.6799   YY=   177.9527   ZY=    -2.8611
   XZ=   -24.0807   YZ=    -2.1383   ZZ=   191.7797
   Eigenvalues:   177.4471   178.7140   235.9356
     26  C    Isotropic =   209.9152   Anisotropy =    41.5698
   XX=   209.0117   YX=     8.0416   ZX=    13.9580
   XY=    10.3110   YY=   204.4683   ZY=    16.6046
   XZ=    13.4458   YZ=    16.9062   ZZ=   216.2657
   Eigenvalues:   192.5826   199.5347   237.6284
     27  C    Isotropic =   206.5389   Anisotropy =    15.0220
   XX=   216.4570   YX=    -0.3676   ZX=    -1.7693
   XY=    -0.6220   YY=   202.3355   ZY=    -5.7580
   XZ=    -0.6815   YZ=    -3.8258   ZZ=   200.8243
   Eigenvalues:   196.6494   206.4138   216.5536
     28  C    Isotropic =   119.7911   Anisotropy =   158.1920
   XX=   105.9520   YX=   -43.6853   ZX=    83.9152
   XY=   -37.9504   YY=   109.1839   ZY=   -30.5178
   XZ=    72.8043   YZ=   -25.7117   ZZ=   144.2373
   Eigenvalues:    40.4889    93.6319   225.2524
     29  C    Isotropic =   127.8532   Anisotropy =   147.0755
   XX=   153.4536   YX=     0.1194   ZX=    72.7751
   XY=     0.6964   YY=    89.6310   ZY=   -68.4503
   XZ=    56.6988   YZ=   -54.8969   ZZ=   140.4750
   Eigenvalues:    34.9864   122.6696   225.9035
     30  C    Isotropic =   119.3386   Anisotropy =   153.3303
   XX=   131.6179   YX=   -64.1856   ZX=    49.5155
   XY=   -57.1481   YY=    63.9996   ZY=   -34.0100
   XZ=    37.3165   YZ=   -40.9257   ZZ=   162.3982
   Eigenvalues:    27.4096   109.0473   221.5588
     31  C    Isotropic =   133.9254   Anisotropy =   143.4390
   XX=   159.1744   YX=    -6.7088   ZX=    63.8705
   XY=   -13.3934   YY=   102.8685   ZY=   -53.8641
   XZ=    61.7263   YZ=   -58.2927   ZZ=   139.7333
   Eigenvalues:    52.2142   120.0106   229.5514
     32  C    Isotropic =   108.6303   Anisotropy =   130.2719
   XX=   108.9379   YX=   -22.0023   ZX=    67.3109
   XY=   -27.1883   YY=    96.1710   ZY=   -23.1214
   XZ=    78.2710   YZ=    -6.0309   ZZ=   120.7819
   Eigenvalues:    40.4983    89.9143   195.4783
     33  C    Isotropic =   117.4849   Anisotropy =   142.6925
   XX=   145.6031   YX=   -37.6673   ZX=    54.6393
   XY=   -42.1795   YY=    66.4431   ZY=   -23.2034
   XZ=    51.6097   YZ=   -34.8606   ZZ=   140.4083
   Eigenvalues:    49.1219    90.7194   212.6132
     34  N    Isotropic =   273.5103   Anisotropy =    85.6078
   XX=   308.1990   YX=    26.8004   ZX=   -10.5837
   XY=    46.7821   YY=   261.1944   ZY=   -12.6852
   XZ=    -9.8422   YZ=    -5.3796   ZZ=   251.1376
   Eigenvalues:   240.0401   249.9086   330.5822
     35  C    Isotropic =   200.7128   Anisotropy =    13.1942
   XX=   196.0277   YX=    -5.7060   ZX=    -5.0309
   XY=    -5.4676   YY=   199.2503   ZY=     7.1069
   XZ=    -1.6689   YZ=    -2.2869   ZZ=   206.8603
   Eigenvalues:   191.7154   200.9140   209.5089
     36  C    Isotropic =   179.3889   Anisotropy =    39.8118
   XX=   172.8970   YX=    11.4918   ZX=   -15.4895
   XY=     2.3463   YY=   186.0370   ZY=    18.6857
   XZ=    -2.4111   YZ=    27.3804   ZZ=   179.2326
   Eigenvalues:   152.9517   179.2849   205.9300
     37  C    Isotropic =   183.7329   Anisotropy =    43.7327
   XX=   177.0562   YX=   -16.4281   ZX=    12.0779
   XY=   -19.6188   YY=   200.3503   ZY=    -4.1411
   XZ=    18.2052   YZ=    -1.9356   ZZ=   173.7921
   Eigenvalues:   157.5107   180.7999   212.8880
     38  C    Isotropic =   211.0342   Anisotropy =    23.7348
   XX=   209.2883   YX=    -0.4046   ZX=    11.0918
   XY=    -4.8069   YY=   208.1711   ZY=    -1.3893
   XZ=    13.3707   YZ=    -9.0383   ZZ=   215.6433
   Eigenvalues:   199.6525   206.5928   226.8574
     39  C    Isotropic =   212.6791   Anisotropy =    20.2913
   XX=   204.1086   YX=    -6.5719   ZX=     0.2276
   XY=    -4.4981   YY=   224.4335   ZY=    -4.1711
   XZ=     2.3049   YZ=    -0.2677   ZZ=   209.4952
   Eigenvalues:   202.6292   209.2015   226.2066
     40  C    Isotropic =   211.4345   Anisotropy =    11.4862
   XX=   209.5806   YX=     4.2688   ZX=     3.5349
   XY=     3.4247   YY=   211.7379   ZY=     4.3147
   XZ=     3.3921   YZ=     3.4851   ZZ=   212.9851
   Eigenvalues:   206.6100   208.6016   219.0920
     41  N    Isotropic =   235.0404   Anisotropy =    23.8808
   XX=   244.4957   YX=     4.6837   ZX=    -9.3092
   XY=    -8.0831   YY=   239.7096   ZY=    -0.8681
   XZ=   -15.3348   YZ=   -22.4494   ZZ=   220.9158
   Eigenvalues:   211.0831   243.0771   250.9609
     42  C    Isotropic =   193.5818   Anisotropy =    49.3160
   XX=   181.9841   YX=    -1.7665   ZX=     1.3578
   XY=    -3.1944   YY=   191.8192   ZY=    28.1285
   XZ=    -2.7131   YZ=    23.6808   ZZ=   206.9422
   Eigenvalues:   172.1401   182.1462   226.4592
     43  C    Isotropic =   219.1169   Anisotropy =    11.8199
   XX=   223.3120   YX=    -2.1426   ZX=     6.3967
   XY=    -2.5314   YY=   222.2619   ZY=     4.0191
   XZ=     8.5382   YZ=     6.5170   ZZ=   211.7769
   Eigenvalues:   206.0616   224.2923   226.9968
     44  C    Isotropic =   214.6837   Anisotropy =    22.3348
   XX=   205.7999   YX=    -0.7344   ZX=     5.6034
   XY=    -2.6613   YY=   221.1077   ZY=    10.7684
   XZ=     2.4358   YZ=     9.6100   ZZ=   217.1433
   Eigenvalues:   202.8003   211.6771   229.5735
     45  C    Isotropic =   206.9762   Anisotropy =    36.6036
   XX=   207.5634   YX=   -18.7043   ZX=    14.1052
   XY=   -15.1974   YY=   216.0020   ZY=     2.5500
   XZ=    19.4820   YZ=     4.2183   ZZ=   197.3632
   Eigenvalues:   179.8984   209.6516   231.3786
     46  C    Isotropic =   190.5953   Anisotropy =    55.1067
   XX=   213.4025   YX=     0.9164   ZX=    23.7514
   XY=    11.5390   YY=   185.1821   ZY=    10.1739
   XZ=    23.5112   YZ=    15.7243   ZZ=   173.2012
   Eigenvalues:   158.8597   185.5930   227.3330
     47  C    Isotropic =   211.6725   Anisotropy =    25.0404
   XX=   205.5184   YX=     6.8097   ZX=    -6.1262
   XY=     6.0770   YY=   202.6620   ZY=     3.8547
   XZ=    -5.0468   YZ=     3.2426   ZZ=   226.8372
   Eigenvalues:   196.1965   210.4550   228.3661
     48  C    Isotropic =   207.2187   Anisotropy =    16.3224
   XX=   201.8016   YX=     1.5537   ZX=    -1.2605
   XY=     2.0777   YY=   210.0961   ZY=    -9.2954
   XZ=    -4.0613   YZ=    -5.8207   ZZ=   209.7586
   Eigenvalues:   200.9221   202.6338   218.1003
     49  C    Isotropic =    98.2376   Anisotropy =    96.3110
   XX=   149.6179   YX=   -36.2509   ZX=    29.8936
   XY=   -24.5621   YY=    45.9250   ZY=    95.4485
   XZ=    15.3167   YZ=    76.2704   ZZ=    99.1699
   Eigenvalues:   -25.5403   157.8082   162.4449
     50  O    Isotropic =  -132.4444   Anisotropy =   879.4418
   XX=    15.0421   YX=  -367.5179   ZX=  -345.8681
   XY=  -355.8791   YY=  -133.2645   ZY=    85.6953
   XZ=  -346.5576   YZ=    72.5878   ZZ=  -279.1110
   Eigenvalues:  -569.7397  -281.4437   453.8501
     51  O    Isotropic =   285.7615   Anisotropy =   142.9241
   XX=   336.4677   YX=    63.8591   ZX=  -107.2092
   XY=    -0.6054   YY=   356.8971   ZY=   -12.9123
   XZ=   -54.7597   YZ=   105.9611   ZZ=   163.9196
   Eigenvalues:   119.1555   357.0848   381.0442
     52  C    Isotropic =   197.4793   Anisotropy =    56.3752
   XX=   181.4036   YX=    -4.5992   ZX=     6.1934
   XY=    -5.5777   YY=   195.3364   ZY=   -26.5385
   XZ=     5.6301   YZ=   -26.5397   ZZ=   215.6979
   Eigenvalues:   176.8865   180.4886   235.0628
     53  C    Isotropic =   211.1299   Anisotropy =    42.4177
   XX=   213.4923   YX=   -18.5126   ZX=   -11.7911
   XY=   -17.5624   YY=   212.5132   ZY=    11.5653
   XZ=   -12.6291   YZ=    10.2593   ZZ=   207.3842
   Eigenvalues:   194.8641   199.1172   239.4084
     54  O    Isotropic =    74.4730   Anisotropy =   406.0228
   XX=    22.3231   YX=   107.3146   ZX=  -128.5679
   XY=    85.8893   YY=    55.3803   ZY=  -154.5574
   XZ=  -114.2927   YZ=  -173.3313   ZZ=   145.7156
   Eigenvalues:   -69.9963   -51.7397   345.1549
     55  H    Isotropic =    25.7628   Anisotropy =    13.8220
   XX=    29.8789   YX=    -4.8899   ZX=     1.6721
   XY=    -5.1466   YY=    28.3221   ZY=    -1.9382
   XZ=     3.9682   YZ=    -2.4285   ZZ=    19.0874
   Eigenvalues:    18.2836    24.0273    34.9775
     56  H    Isotropic =    25.7403   Anisotropy =     6.5873
   XX=    28.1381   YX=     1.6727   ZX=     3.0706
   XY=     0.6554   YY=    27.3317   ZY=     0.3267
   XZ=     3.6373   YZ=     0.5764   ZZ=    21.7511
   Eigenvalues:    20.3132    26.7758    30.1318
     57  H    Isotropic =    26.6273   Anisotropy =     7.9088
   XX=    26.6691   YX=    -0.7871   ZX=     3.6545
   XY=    -0.8521   YY=    31.4340   ZY=    -0.8698
   XZ=     3.5801   YZ=    -1.2035   ZZ=    21.7788
   Eigenvalues:    19.8331    28.1489    31.8998
     58  H    Isotropic =    31.9737   Anisotropy =    15.1021
   XX=    40.8436   YX=    -2.9724   ZX=     1.0887
   XY=    -4.5952   YY=    29.8506   ZY=     1.0381
   XZ=     0.1463   YZ=    -1.1349   ZZ=    25.2268
   Eigenvalues:    25.1997    28.6795    42.0417
     59  H    Isotropic =    33.3593   Anisotropy =     8.9974
   XX=    34.1065   YX=    -3.6171   ZX=    -3.8583
   XY=    -5.0602   YY=    35.3066   ZY=     1.2844
   XZ=    -0.9171   YZ=    -1.4640   ZZ=    30.6646
   Eigenvalues:    28.5287    32.1916    39.3575
     60  H    Isotropic =    32.3475   Anisotropy =    13.4055
   XX=    28.5742   YX=     4.5175   ZX=     2.3395
   XY=     3.5679   YY=    29.5954   ZY=     3.3716
   XZ=     4.0457   YZ=     2.7819   ZZ=    38.8730
   Eigenvalues:    24.9987    30.7593    41.2846
     61  H    Isotropic =    32.4988   Anisotropy =    14.6543
   XX=    27.1884   YX=     0.4969   ZX=     1.3331
   XY=     0.5537   YY=    29.6419   ZY=    -4.1114
   XZ=     1.3063   YZ=    -4.6398   ZZ=    40.6661
   Eigenvalues:    26.5588    28.6692    42.2684
     62  H    Isotropic =    32.9006   Anisotropy =    13.8429
   XX=    40.5542   YX=    -0.4917   ZX=    -4.4010
   XY=    -1.1837   YY=    28.2938   ZY=     1.4371
   XZ=    -4.1536   YZ=    -0.0459   ZZ=    29.8539
   Eigenvalues:    27.9021    28.6706    42.1292
     63  H    Isotropic =    31.9750   Anisotropy =    17.7813
   XX=    43.4961   YX=    -0.4838   ZX=     2.6486
   XY=     1.0216   YY=    27.8695   ZY=     0.8454
   XZ=     2.3635   YZ=     0.2063   ZZ=    24.5594
   Eigenvalues:    24.1692    27.9266    43.8292
     64  H    Isotropic =    31.8333   Anisotropy =    14.3787
   XX=    27.2524   YX=     1.4461   ZX=     0.9583
   XY=     2.0583   YY=    32.1273   ZY=     7.1590
   XZ=     1.2789   YZ=     6.3174   ZZ=    36.1200
   Eigenvalues:    26.3105    27.7703    41.4190
     65  H    Isotropic =    32.6346   Anisotropy =    16.8043
   XX=    29.6941   YX=     6.1991   ZX=     0.5121
   XY=     5.8494   YY=    41.2697   ZY=     0.0204
   XZ=     0.5327   YZ=    -0.1274   ZZ=    26.9398
   Eigenvalues:    26.5227    27.5435    43.8374
     66  H    Isotropic =    32.5612   Anisotropy =    12.2770
   XX=    35.9235   YX=    -5.2046   ZX=    -1.3511
   XY=    -4.7578   YY=    34.7273   ZY=     2.1885
   XZ=    -1.2591   YZ=     1.9467   ZZ=    27.0326
   Eigenvalues:    26.5119    30.4258    40.7459
     67  H    Isotropic =    32.7791   Anisotropy =    13.4034
   XX=    40.4818   YX=     1.1579   ZX=    -3.7573
   XY=     1.4544   YY=    29.2897   ZY=     0.0025
   XZ=    -3.7578   YZ=    -0.6996   ZZ=    28.5659
   Eigenvalues:    27.4795    29.1431    41.7147
     68  H    Isotropic =    32.5251   Anisotropy =    14.5613
   XX=    27.4768   YX=    -0.1950   ZX=     2.5892
   XY=     0.3571   YY=    35.3377   ZY=    -6.8858
   XZ=     2.0782   YZ=    -7.1356   ZZ=    34.7608
   Eigenvalues:    25.9044    29.4383    42.2326
     69  H    Isotropic =    32.3492   Anisotropy =    11.0628
   XX=    26.6229   YX=    -2.6972   ZX=    -0.8809
   XY=    -1.4730   YY=    33.1167   ZY=    -5.5535
   XZ=    -0.0108   YZ=    -2.3523   ZZ=    37.3081
   Eigenvalues:    25.7700    31.5533    39.7244
     70  H    Isotropic =    32.9302   Anisotropy =    12.1303
   XX=    40.5918   YX=     1.3819   ZX=    -2.0816
   XY=     1.2462   YY=    26.9609   ZY=    -0.2171
   XZ=    -1.4551   YZ=     1.2949   ZZ=    31.2379
   Eigenvalues:    26.7202    31.0534    41.0171
     71  H    Isotropic =    31.8347   Anisotropy =    15.5988
   XX=    27.0106   YX=     0.6816   ZX=    -3.5188
   XY=     0.7069   YY=    27.6623   ZY=     3.5796
   XZ=    -1.3503   YZ=     4.3196   ZZ=    40.8311
   Eigenvalues:    25.3276    27.9425    42.2338
     72  H    Isotropic =    31.9328   Anisotropy =     9.9655
   XX=    34.4233   YX=    -4.7788   ZX=    -1.5963
   XY=    -4.4997   YY=    32.3776   ZY=     0.9690
   XZ=    -1.1576   YZ=     2.0458   ZZ=    28.9976
   Eigenvalues:    28.3028    28.9192    38.5765
     73  H    Isotropic =    31.4302   Anisotropy =     9.7711
   XX=    32.4817   YX=    -3.4956   ZX=    -1.6337
   XY=    -2.0899   YY=    32.7406   ZY=     4.8480
   XZ=    -1.6543   YZ=     4.7220   ZZ=    29.0682
   Eigenvalues:    25.7701    30.5761    37.9442
     74  H    Isotropic =    32.2769   Anisotropy =    14.7587
   XX=    30.8757   YX=    -2.4388   ZX=     5.0867
   XY=    -1.6735   YY=    33.6797   ZY=    -6.8481
   XZ=     4.6058   YZ=    -7.1873   ZZ=    32.2754
   Eigenvalues:    24.8431    29.8716    42.1160
     75  H    Isotropic =    31.2726   Anisotropy =    12.6573
   XX=    32.4707   YX=     1.2461   ZX=     6.1988
   XY=     1.3174   YY=    27.0056   ZY=    -0.9436
   XZ=     6.1917   YZ=     0.5941   ZZ=    34.3414
   Eigenvalues:    25.9660    28.1409    39.7108
     76  H    Isotropic =    30.5853   Anisotropy =    11.7851
   XX=    35.6234   YX=    -4.3333   ZX=    -0.2680
   XY=    -5.0089   YY=    30.6659   ZY=    -0.2626
   XZ=    -0.5462   YZ=     0.2563   ZZ=    25.4664
   Eigenvalues:    25.4385    27.8753    38.4420
     77  H    Isotropic =    30.6539   Anisotropy =     7.8717
   XX=    31.2882   YX=     0.5740   ZX=    -1.5855
   XY=     0.9997   YY=    26.2194   ZY=    -1.6995
   XZ=    -2.4834   YZ=    -2.1916   ZZ=    34.4541
   Eigenvalues:    25.7622    30.2979    35.9017
     78  H    Isotropic =    30.5552   Anisotropy =    12.2245
   XX=    34.9701   YX=     5.4608   ZX=     0.9412
   XY=     5.0126   YY=    30.8495   ZY=     1.9286
   XZ=     0.1891   YZ=     1.6041   ZZ=    25.8460
   Eigenvalues:    25.0920    27.8687    38.7048
     79  H    Isotropic =    31.9903   Anisotropy =    11.1331
   XX=    29.4708   YX=    -0.1055   ZX=    -2.1603
   XY=    -0.4903   YY=    31.9419   ZY=     5.9621
   XZ=     0.0939   YZ=     5.8787   ZZ=    34.5581
   Eigenvalues:    27.1114    29.4471    39.4123
     80  H    Isotropic =    30.7965   Anisotropy =    14.8080
   XX=    32.0909   YX=     6.6444   ZX=     1.2514
   XY=     6.5533   YY=    35.4603   ZY=     0.2384
   XZ=     2.0841   YZ=     0.0531   ZZ=    24.8384
   Eigenvalues:    24.2119    27.5092    40.6685
     81  H    Isotropic =    30.9549   Anisotropy =    11.0291
   XX=    33.0217   YX=    -1.1749   ZX=     6.1921
   XY=    -0.8622   YY=    30.2942   ZY=     1.1339
   XZ=     7.3967   YZ=     0.5913   ZZ=    29.5488
   Eigenvalues:    24.0012    30.5559    38.3076
     82  H    Isotropic =    29.9078   Anisotropy =    12.4425
   XX=    27.4293   YX=     0.6541   ZX=     0.0396
   XY=     1.2224   YY=    37.3957   ZY=    -2.6370
   XZ=    -0.5694   YZ=    -3.5282   ZZ=    24.8984
   Eigenvalues:    24.1787    27.3419    38.2028
     83  H    Isotropic =    30.0512   Anisotropy =     8.0812
   XX=    26.5124   YX=     0.8204   ZX=     0.6119
   XY=     0.9120   YY=    28.5973   ZY=     0.8064
   XZ=     1.3329   YZ=     1.7986   ZZ=    35.0440
   Eigenvalues:    26.1716    28.5434    35.4387
     84  H    Isotropic =    25.9440   Anisotropy =    11.8453
   XX=    30.0660   YX=     4.7664   ZX=    -1.8198
   XY=     4.1707   YY=    26.8563   ZY=    -1.6773
   XZ=    -3.1179   YZ=    -1.2368   ZZ=    20.9097
   Eigenvalues:    20.2638    23.7274    33.8409
     85  H    Isotropic =    25.8216   Anisotropy =     6.8873
   XX=    26.9690   YX=    -0.9617   ZX=    -3.4917
   XY=     0.1104   YY=    27.2040   ZY=     1.9766
   XZ=    -4.5009   YZ=     2.6363   ZZ=    23.2918
   Eigenvalues:    20.2896    26.7620    30.4131
     86  H    Isotropic =    26.5913   Anisotropy =     7.4671
   XX=    27.0011   YX=     3.1449   ZX=    -2.6718
   XY=     3.2234   YY=    29.3466   ZY=     2.4222
   XZ=    -3.7564   YZ=     2.3379   ZZ=    23.4262
   Eigenvalues:    20.0480    28.1565    31.5694
     87  H    Isotropic =    31.5919   Anisotropy =     5.7801
   XX=    32.0295   YX=     2.1426   ZX=    -2.6382
   XY=     1.4734   YY=    30.3990   ZY=    -0.9464
   XZ=    -3.1571   YZ=     0.7787   ZZ=    32.3473
   Eigenvalues:    28.3891    30.9414    35.4453
     88  H    Isotropic =    33.0067   Anisotropy =     8.8263
   XX=    31.1117   YX=     3.4043   ZX=     1.5190
   XY=     0.2387   YY=    37.6773   ZY=    -3.4209
   XZ=     4.0498   YZ=    -2.7948   ZZ=    30.2312
   Eigenvalues:    26.7006    33.4287    38.8909
     89  H    Isotropic =    32.0694   Anisotropy =    13.8545
   XX=    37.6324   YX=    -5.8209   ZX=    -0.2342
   XY=    -6.6833   YY=    30.4911   ZY=     2.1182
   XZ=     1.3504   YZ=     2.7989   ZZ=    28.0847
   Eigenvalues:    24.9772    29.9253    41.3057
     90  H    Isotropic =    32.1353   Anisotropy =    16.0328
   XX=    38.1219   YX=    -2.0489   ZX=     7.2029
   XY=    -2.8480   YY=    28.0791   ZY=     0.1141
   XZ=     7.5926   YZ=     0.3249   ZZ=    30.2047
   Eigenvalues:    25.0315    28.5505    42.8238
     91  H    Isotropic =    32.7989   Anisotropy =    11.6760
   XX=    28.8677   YX=     1.7894   ZX=    -1.4766
   XY=     0.0952   YY=    31.0663   ZY=    -5.0204
   XZ=    -0.8232   YZ=    -3.5013   ZZ=    38.4627
   Eigenvalues:    28.4724    29.3414    40.5829
     92  H    Isotropic =    30.7303   Anisotropy =    13.0411
   XX=    31.4807   YX=    -5.6781   ZX=     1.9214
   XY=    -5.0567   YY=    35.7352   ZY=     1.5764
   XZ=     1.9588   YZ=     2.9157   ZZ=    24.9751
   Eigenvalues:    23.1748    29.5918    39.4244
     93  H    Isotropic =    31.7611   Anisotropy =    10.0319
   XX=    34.0892   YX=     0.7244   ZX=    -4.3004
   XY=     0.6434   YY=    27.6415   ZY=     2.6754
   XZ=    -4.7256   YZ=     1.8436   ZZ=    33.5525
   Eigenvalues:    26.1381    30.6961    38.4490
     94  H    Isotropic =    32.1892   Anisotropy =    17.3178
   XX=    27.8875   YX=    -0.3832   ZX=     1.3626
   XY=    -0.0556   YY=    33.0574   ZY=     8.9464
   XZ=     2.0439   YZ=     9.4996   ZZ=    35.6226
   Eigenvalues:    24.5276    28.3056    43.7343
     95  H    Isotropic =    30.9742   Anisotropy =    12.6863
   XX=    29.5635   YX=     4.9369   ZX=    -1.8773
   XY=     5.1130   YY=    35.9768   ZY=    -2.5475
   XZ=    -1.4491   YZ=    -2.2539   ZZ=    27.3822
   Eigenvalues:    26.4426    27.0482    39.4317
     96  H    Isotropic =    32.5346   Anisotropy =    12.4345
   XX=    26.6539   YX=    -0.5381   ZX=     0.3322
   XY=    -1.0571   YY=    30.2837   ZY=    -1.4301
   XZ=     0.8180   YZ=    -0.8833   ZZ=    40.6662
   Eigenvalues:    26.4787    30.3008    40.8243
     97  H    Isotropic =    32.0130   Anisotropy =    15.5359
   XX=    38.5756   YX=     3.4818   ZX=     4.8605
   XY=     3.4074   YY=    29.0281   ZY=     3.9921
   XZ=     5.1622   YZ=     4.2009   ZZ=    28.4354
   Eigenvalues:    24.4483    29.2205    42.3703
     98  H    Isotropic =    32.9759   Anisotropy =    11.7609
   XX=    38.2207   YX=     0.2769   ZX=     6.2625
   XY=     1.7963   YY=    31.7271   ZY=     2.5848
   XZ=     4.3162   YZ=    -0.7471   ZZ=    28.9800
   Eigenvalues:    26.5443    31.5670    40.8165
     99  H    Isotropic =    31.3529   Anisotropy =    10.4536
   XX=    31.3879   YX=    -0.9507   ZX=    -3.0224
   XY=    -1.1278   YY=    26.9698   ZY=    -3.1963
   XZ=    -3.4220   YZ=    -4.8631   ZZ=    35.7012
   Eigenvalues:    24.6535    31.0833    38.3220
    100  H    Isotropic =    31.2751   Anisotropy =    16.1673
   XX=    41.5110   YX=    -0.1597   ZX=    -3.2167
   XY=     0.9715   YY=    27.5851   ZY=     0.3696
   XZ=    -2.8415   YZ=    -0.6140   ZZ=    24.7291
   Eigenvalues:    24.1984    27.5736    42.0533
    101  H    Isotropic =    30.9368   Anisotropy =    16.4519
   XX=    36.9283   YX=    -6.9687   ZX=     4.6597
   XY=    -5.1474   YY=    30.5944   ZY=    -1.8993
   XZ=     2.9173   YZ=    -3.5801   ZZ=    25.2876
   Eigenvalues:    23.9359    26.9697    41.9047
    102  H    Isotropic =    29.8043   Anisotropy =    10.4774
   XX=    26.1534   YX=     2.4234   ZX=    -3.6834
   XY=     3.3279   YY=    34.5057   ZY=    -2.3064
   XZ=    -2.5636   YZ=    -2.5528   ZZ=    28.7538
   Eigenvalues:    23.9443    28.6793    36.7892
    103  H    Isotropic =    31.7129   Anisotropy =    14.9740
   XX=    41.1858   YX=     2.8477   ZX=     0.6247
   XY=     2.2848   YY=    25.9374   ZY=     0.9111
   XZ=     1.2443   YZ=     1.3360   ZZ=    28.0155
   Eigenvalues:    25.1844    28.2588    41.6956
    104  H    Isotropic =    31.3643   Anisotropy =    13.2122
   XX=    36.8003   YX=    -2.7464   ZX=    -4.6448
   XY=    -3.0725   YY=    29.4259   ZY=     0.8261
   XZ=    -5.6335   YZ=     2.4463   ZZ=    27.8667
   Eigenvalues:    25.4989    28.4216    40.1725
    105  H    Isotropic =    30.5726   Anisotropy =     7.2756
   XX=    33.5982   YX=    -3.4084   ZX=     0.3544
   XY=    -2.0603   YY=    28.7749   ZY=    -3.7292
   XZ=    -0.0226   YZ=    -3.6391   ZZ=    29.3446
   Eigenvalues:    24.9257    31.3690    35.4230
    106  H    Isotropic =    30.6227   Anisotropy =    12.5356
   XX=    28.5941   YX=     4.6300   ZX=    -1.5384
   XY=     5.2788   YY=    34.9224   ZY=    -2.9972
   XZ=    -2.1075   YZ=    -3.6210   ZZ=    28.3517
   Eigenvalues:    25.8796    27.0088    38.9798
    107  H    Isotropic =    30.6002   Anisotropy =    11.4372
   XX=    27.0540   YX=     0.1573   ZX=    -3.3347
   XY=    -0.0370   YY=    27.7843   ZY=     0.8253
   XZ=    -4.0827   YZ=     0.3604   ZZ=    36.9623
   Eigenvalues:    25.7893    27.7863    38.2250
    108  H    Isotropic =    31.5153   Anisotropy =    11.9951
   XX=    33.8844   YX=     0.8105   ZX=    -7.4568
   XY=     0.8092   YY=    30.7592   ZY=     1.7484
   XZ=    -7.1828   YZ=     2.1118   ZZ=    29.9022
   Eigenvalues:    23.7231    31.3107    39.5120
    109  H    Isotropic =    30.8187   Anisotropy =    14.6200
   XX=    27.5157   YX=     0.8523   ZX=    -0.8080
   XY=     1.3294   YY=    31.8462   ZY=     7.9874
   XZ=    -0.5633   YZ=     8.1460   ZZ=    33.0942
   Eigenvalues:    23.9316    27.9591    40.5654
    110  H    Isotropic =    31.9595   Anisotropy =    12.4034
   XX=    31.5240   YX=    -6.0582   ZX=     0.4631
   XY=    -6.3166   YY=    35.6792   ZY=    -0.4387
   XZ=     1.7732   YZ=    -0.5966   ZZ=    28.6753
   Eigenvalues:    26.8623    28.7878    40.2284
 End of Minotr F.D. properties file   721 does not exist.
 End of Minotr F.D. properties file   722 does not exist.
 End of Minotr F.D. properties file   788 does not exist.
 Hyperfine terms turned off by default for NAtoms > 100.

 **********************************************************************

            Population analysis using the SCF Density.

 **********************************************************************

 Orbital symmetries:
       Occupied  (A) (A) (A) (A) (A) (A) (A) (A) (A) (A) (A) (A)
                 (A) (A) (A) (A) (A) (A) (A) (A) (A) (A) (A) (A)
                 (A) (A) (A) (A) (A) (A) (A) (A) (A) (A) (A) (A)
                 (A) (A) (A) (A) (A) (A) (A) (A) (A) (A) (A) (A)
                 (A) (A) (A) (A) (A) (A) (A) (A) (A) (A) (A) (A)
                 (A) (A) (A) (A) (A) (A) (A) (A) (A) (A) (A) (A)
                 (A) (A) (A) (A) (A) (A) (A) (A) (A) (A) (A) (A)
                 (A) (A) (A) (A) (A) (A) (A) (A) (A) (A) (A) (A)
                 (A) (A) (A) (A) (A) (A) (A) (A) (A) (A) (A) (A)
                 (A) (A) (A) (A) (A) (A) (A) (A) (A) (A) (A) (A)
                 (A) (A) (A) (A) (A) (A) (A) (A) (A) (A) (A) (A)
                 (A) (A) (A) (A) (A) (A) (A) (A) (A) (A) (A) (A)
                 (A) (A) (A) (A) (A) (A) (A) (A) (A) (A) (A) (A)
                 (A) (A) (A) (A) (A) (A) (A) (A) (A) (A) (A) (A)
                 (A) (A) (A) (A) (A) (A) (A) (A) (A) (A) (A) (A)
                 (A) (A) (A) (A) (A) (A) (A) (A) (A) (A) (A) (A)
                 (A) (A) (A) (A) (A)
       Virtual   (A) (A) (A) (A) (A) (A) (A) (A) (A) (A) (A) (A)
                 (A) (A) (A) (A) (A) (A) (A) (A) (A) (A) (A) (A)
                 (A) (A) (A) (A) (A) (A) (A) (A) (A) (A) (A) (A)
                 (A) (A) (A) (A) (A) (A) (A) (A) (A) (A) (A) (A)
                 (A) (A) (A) (A) (A) (A) (A) (A) (A) (A) (A) (A)
                 (A) (A) (A) (A) (A) (A) (A) (A) (A) (A) (A) (A)
                 (A) (A) (A) (A) (A) (A) (A) (A) (A) (A) (A) (A)
                 (A) (A) (A) (A) (A) (A) (A) (A) (A) (A) (A) (A)
                 (A) (A) (A) (A) (A) (A) (A) (A) (A) (A) (A) (A)
                 (A) (A) (A) (A) (A) (A) (A) (A) (A) (A) (A) (A)
                 (A) (A) (A) (A) (A) (A) (A) (A) (A)
 The electronic state is 1-A.
 Alpha  occ. eigenvalues --  -20.30581 -20.28606 -20.24543 -20.22627 -19.92212
 Alpha  occ. eigenvalues --  -15.48246 -15.33493 -15.33436 -15.30757 -11.16465
 Alpha  occ. eigenvalues --  -11.14841 -11.10504 -11.09721 -11.09376 -11.09349
 Alpha  occ. eigenvalues --  -11.09221 -11.08841 -11.08766 -11.08035 -11.07804
 Alpha  occ. eigenvalues --  -11.07129 -11.07062 -11.06459 -11.06359 -11.06296
 Alpha  occ. eigenvalues --  -11.06172 -11.05819 -11.05716 -11.05676 -11.05511
 Alpha  occ. eigenvalues --  -11.05331 -11.05236 -11.04809 -11.04715 -11.04474
 Alpha  occ. eigenvalues --  -11.04354 -11.04203 -11.04166 -11.04006 -11.03812
 Alpha  occ. eigenvalues --  -11.03756 -11.03711 -11.03705 -11.03217 -11.02225
 Alpha  occ. eigenvalues --  -11.02127 -11.02091 -11.01925 -11.01825 -11.01732
 Alpha  occ. eigenvalues --  -11.01717 -11.01459 -11.01451 -11.01280  -1.37799
 Alpha  occ. eigenvalues --   -1.35851  -1.29626  -1.27601  -1.25597  -1.21385
 Alpha  occ. eigenvalues --   -1.20863  -1.18899  -1.10578  -1.09635  -1.08935
 Alpha  occ. eigenvalues --   -1.07532  -1.05820  -1.04920  -1.02839  -1.00801
 Alpha  occ. eigenvalues --   -0.99140  -0.98801  -0.98442  -0.97470  -0.96771
 Alpha  occ. eigenvalues --   -0.96588  -0.95273  -0.94510  -0.94085  -0.92369
 Alpha  occ. eigenvalues --   -0.91602  -0.91458  -0.89598  -0.89357  -0.87928
 Alpha  occ. eigenvalues --   -0.86495  -0.84778  -0.82822  -0.81855  -0.81252
 Alpha  occ. eigenvalues --   -0.80441  -0.79639  -0.78359  -0.77654  -0.77481
 Alpha  occ. eigenvalues --   -0.77220  -0.74508  -0.74040  -0.72807  -0.72224
 Alpha  occ. eigenvalues --   -0.71313  -0.70228  -0.69384  -0.68411  -0.65899
 Alpha  occ. eigenvalues --   -0.65206  -0.64832  -0.64622  -0.63550  -0.62992
 Alpha  occ. eigenvalues --   -0.62587  -0.62197  -0.61583  -0.61396  -0.61144
 Alpha  occ. eigenvalues --   -0.60580  -0.59748  -0.59186  -0.58733  -0.58495
 Alpha  occ. eigenvalues --   -0.58170  -0.58075  -0.57881  -0.57767  -0.57204
 Alpha  occ. eigenvalues --   -0.56789  -0.56664  -0.56366  -0.55728  -0.55349
 Alpha  occ. eigenvalues --   -0.54961  -0.54715  -0.54672  -0.54519  -0.54369
 Alpha  occ. eigenvalues --   -0.54357  -0.53867  -0.53361  -0.52539  -0.51808
 Alpha  occ. eigenvalues --   -0.51639  -0.51015  -0.50945  -0.50827  -0.50204
 Alpha  occ. eigenvalues --   -0.49929  -0.49552  -0.49244  -0.48974  -0.48891
 Alpha  occ. eigenvalues --   -0.48305  -0.47957  -0.47679  -0.47403  -0.47106
 Alpha  occ. eigenvalues --   -0.46290  -0.46230  -0.45895  -0.45533  -0.45111
 Alpha  occ. eigenvalues --   -0.44919  -0.44771  -0.44479  -0.44338  -0.43860
 Alpha  occ. eigenvalues --   -0.43553  -0.43385  -0.43353  -0.42577  -0.42524
 Alpha  occ. eigenvalues --   -0.42382  -0.41887  -0.41429  -0.41016  -0.40572
 Alpha  occ. eigenvalues --   -0.40515  -0.40050  -0.38804  -0.38425  -0.38307
 Alpha  occ. eigenvalues --   -0.37466  -0.37304  -0.36458  -0.35594  -0.34123
 Alpha  occ. eigenvalues --   -0.33268  -0.33198  -0.32018  -0.31311  -0.30615
 Alpha  occ. eigenvalues --   -0.27293  -0.27061  -0.26272  -0.21198  -0.20236
 Alpha  occ. eigenvalues --   -0.16158  -0.15638
 Alpha virt. eigenvalues --    0.26650   0.26975   0.27489   0.29392   0.30511
 Alpha virt. eigenvalues --    0.32747   0.45576   0.47848   0.48366   0.49247
 Alpha virt. eigenvalues --    0.49345   0.49939   0.50456   0.51439   0.52314
 Alpha virt. eigenvalues --    0.54201   0.55103   0.55268   0.55588   0.55658
 Alpha virt. eigenvalues --    0.56936   0.57259   0.57877   0.58584   0.58861
 Alpha virt. eigenvalues --    0.59589   0.59709   0.59954   0.60242   0.60979
 Alpha virt. eigenvalues --    0.61414   0.61745   0.62241   0.62756   0.63005
 Alpha virt. eigenvalues --    0.63342   0.63584   0.63879   0.64414   0.64443
 Alpha virt. eigenvalues --    0.64816   0.64930   0.65244   0.65434   0.65882
 Alpha virt. eigenvalues --    0.66080   0.66520   0.66596   0.66942   0.67108
 Alpha virt. eigenvalues --    0.67466   0.67684   0.67763   0.68114   0.68341
 Alpha virt. eigenvalues --    0.68686   0.68999   0.69619   0.69722   0.69955
 Alpha virt. eigenvalues --    0.70240   0.70421   0.70528   0.70847   0.71204
 Alpha virt. eigenvalues --    0.71275   0.71440   0.71561   0.72005   0.72566
 Alpha virt. eigenvalues --    0.72928   0.73140   0.73280   0.73632   0.73805
 Alpha virt. eigenvalues --    0.74137   0.74282   0.74488   0.74766   0.75010
 Alpha virt. eigenvalues --    0.75185   0.75432   0.75891   0.76073   0.76200
 Alpha virt. eigenvalues --    0.76513   0.76823   0.77254   0.77385   0.77791
 Alpha virt. eigenvalues --    0.77928   0.78210   0.78633   0.79056   0.79121
 Alpha virt. eigenvalues --    0.79454   0.79989   0.80184   0.80601   0.80840
 Alpha virt. eigenvalues --    0.81164   0.81238   0.81322   0.81750   0.81931
 Alpha virt. eigenvalues --    0.82477   0.83992   0.84130   0.84390   0.84598
 Alpha virt. eigenvalues --    0.85781   0.86207   0.86365   0.87222   0.87562
 Alpha virt. eigenvalues --    0.88226   0.89397   0.90706   0.91407   0.94417
 Alpha virt. eigenvalues --    0.94697   0.95479   0.98068   1.01456   1.03260
 Alpha virt. eigenvalues --    1.10501   1.11524   1.15989   1.16194
          Condensed to atoms (all electrons):
 Mulliken charges:
               1
     1  C   -0.074190
     2  C    0.000637
     3  C   -0.061423
     4  C   -0.089356
     5  C    0.089280
     6  C   -0.012027
     7  N   -0.285729
     8  C    0.017723
     9  C    0.127745
    10  C    0.039902
    11  C   -0.115187
    12  C   -0.105634
    13  C    0.027753
    14  N   -0.291795
    15  C   -0.015579
    16  C   -0.108491
    17  C   -0.102081
    18  C   -0.105804
    19  C   -0.020106
    20  C   -0.110437
    21  C   -0.066471
    22  C    0.319606
    23  O   -0.277187
    24  O   -0.255345
    25  C   -0.055736
    26  C   -0.079490
    27  C   -0.109392
    28  C    0.001734
    29  C   -0.079504
    30  C   -0.061548
    31  C   -0.089622
    32  C    0.095054
    33  C   -0.013910
    34  N   -0.281366
    35  C    0.015207
    36  C    0.134963
    37  C    0.039519
    38  C   -0.115921
    39  C   -0.105387
    40  C    0.040102
    41  N   -0.081410
    42  C   -0.003210
    43  C   -0.097174
    44  C   -0.099149
    45  C   -0.097985
    46  C   -0.006063
    47  C   -0.098818
    48  C   -0.058558
    49  C    0.327114
    50  O   -0.275492
    51  O   -0.255890
    52  C   -0.054056
    53  C   -0.077019
    54  O   -0.461624
    55  H    0.061521
    56  H    0.055882
    57  H    0.058432
    58  H    0.054342
    59  H    0.055718
    60  H    0.051232
    61  H    0.049119
    62  H    0.051889
    63  H    0.050119
    64  H    0.061134
    65  H    0.054951
    66  H    0.051242
    67  H    0.050583
    68  H    0.052824
    69  H    0.062741
    70  H    0.064329
    71  H    0.056419
    72  H    0.051931
    73  H    0.067569
    74  H    0.051848
    75  H    0.065284
    76  H    0.072324
    77  H    0.074669
    78  H    0.077327
    79  H    0.055988
    80  H    0.071675
    81  H    0.076501
    82  H    0.057756
    83  H    0.057512
    84  H    0.053375
    85  H    0.056754
    86  H    0.060280
    87  H    0.054618
    88  H    0.054617
    89  H    0.049454
    90  H    0.053191
    91  H    0.047135
    92  H    0.084216
    93  H    0.057089
    94  H    0.058078
    95  H    0.080703
    96  H    0.047010
    97  H    0.058459
    98  H    0.067175
    99  H    0.095164
   100  H    0.060615
   101  H    0.087578
   102  H    0.102025
   103  H    0.044971
   104  H    0.061931
   105  H    0.077817
   106  H    0.074274
   107  H    0.067460
   108  H    0.071993
   109  H    0.075300
   110  H    0.054685
 Sum of Mulliken charges =  -0.00000
 Mulliken charges with hydrogens summed into heavy atoms:
               1
     1  C   -0.012669
     2  C    0.000637
     3  C   -0.005540
     4  C   -0.030924
     5  C    0.089280
     6  C   -0.012027
     7  N   -0.285729
     8  C    0.017723
     9  C    0.127745
    10  C    0.094245
    11  C   -0.008237
    12  C   -0.004626
    13  C    0.027753
    14  N   -0.291795
    15  C    0.095674
    16  C   -0.002298
    17  C    0.001326
    18  C    0.021266
    19  C    0.088244
    20  C    0.008981
    21  C   -0.001186
    22  C    0.319606
    23  O   -0.277187
    24  O   -0.255345
    25  C    0.168583
    26  C    0.124675
    27  C    0.005876
    28  C    0.001734
    29  C   -0.026129
    30  C   -0.004794
    31  C   -0.029342
    32  C    0.095054
    33  C   -0.013910
    34  N   -0.281366
    35  C    0.015207
    36  C    0.134963
    37  C    0.094137
    38  C   -0.011851
    39  C   -0.005060
    40  C    0.040102
    41  N   -0.081410
    42  C    0.138096
    43  C    0.041607
    44  C    0.006320
    45  C    0.064355
    46  C    0.142130
    47  C    0.048178
    48  C    0.003373
    49  C    0.327114
    50  O   -0.275492
    51  O   -0.255890
    52  C    0.165494
    53  C    0.124958
    54  O   -0.461624
 Electronic spatial extent (au):  <R**2>=          37340.5419
 Charge=              0.0000 electrons
 Dipole moment (field-independent basis, Debye):
    X=              0.8628    Y=              0.9746    Z=             -1.3438  Tot=              1.8708
 Quadrupole moment (field-independent basis, Debye-Ang):
   XX=           -286.1654   YY=           -299.8760   ZZ=           -296.9458
   XY=             -6.7674   XZ=             17.1275   YZ=              2.5235
 Traceless Quadrupole moment (field-independent basis, Debye-Ang):
   XX=              8.1636   YY=             -5.5469   ZZ=             -2.6167
   XY=             -6.7674   XZ=             17.1275   YZ=              2.5235
 Octapole moment (field-independent basis, Debye-Ang**2):
  XXX=             39.3143  YYY=             -8.2670  ZZZ=             22.1970  XYY=              1.9784
  XXY=             71.6597  XXZ=             42.4700  XZZ=            -10.0967  YZZ=            -39.8523
  YYZ=             24.9007  XYZ=            -18.0505
 Hexadecapole moment (field-independent basis, Debye-Ang**3):
 XXXX=         -31074.7948 YYYY=          -9242.9647 ZZZZ=          -4438.0485 XXXY=             90.6824
 XXXZ=             28.6547 YYYX=             61.3581 YYYZ=             64.5538 ZZZX=           -138.4206
 ZZZY=            -31.4853 XXYY=          -7104.3621 XXZZ=          -6065.8143 YYZZ=          -2234.7191
 XXYZ=            -33.6488 YYXZ=            -44.8830 ZZXY=            132.1936
 N-N= 8.162688963903D+03 E-N=-2.170193950471D+04  KE= 2.279096262133D+03
 ******************************Gaussian NBO Version 3.1******************************
             N A T U R A L   A T O M I C   O R B I T A L   A N D
          N A T U R A L   B O N D   O R B I T A L   A N A L Y S I S
 ******************************Gaussian NBO Version 3.1******************************
       /RESON  / : Allow strongly delocalized NBO set
       /NLMO   / : Form Natural Localized Molecular Orbitals
       /NMR /    : Analyze NMR Sheilding Tensor 

 Analyzing the SCF density

 Job title: Pleiokomenine_C_2                                               

 Storage needed:    355564 in NPA,    438187 in NBO,   2133784 in NLMO ( 104796000 available)
 GSVD:  LWork=     -108884 too small for GESVD, short by      536270 words or      536270 for optimal perf.


 NATURAL POPULATIONS:  Natural atomic orbital occupancies 
                                                          
   NAO  Atom  No  lang   Type(AO)    Occupancy      Energy
 ----------------------------------------------------------
     1    C    1  S      Cor( 1S)     1.99993     -10.94202
     2    C    1  S      Val( 2S)     1.07784      -0.17265
     3    C    1  px     Val( 2p)     0.99394       0.11515
     4    C    1  py     Val( 2p)     0.98034       0.16017
     5    C    1  pz     Val( 2p)     1.00392       0.05419
 
     6    C    2  S      Cor( 1S)     1.99990     -10.95357
     7    C    2  S      Val( 2S)     1.07735      -0.18008
     8    C    2  px     Val( 2p)     0.95170       0.13834
     9    C    2  py     Val( 2p)     0.95860       0.17802
    10    C    2  pz     Val( 2p)     0.99808       0.05843
 
    11    C    3  S      Cor( 1S)     1.99994     -10.94529
    12    C    3  S      Val( 2S)     1.08375      -0.17961
    13    C    3  px     Val( 2p)     0.97837       0.12744
    14    C    3  py     Val( 2p)     0.97551       0.15944
    15    C    3  pz     Val( 2p)     0.99554       0.05450
 
    16    C    4  S      Cor( 1S)     1.99993     -10.93850
    17    C    4  S      Val( 2S)     1.07219      -0.17098
    18    C    4  px     Val( 2p)     1.00271       0.11562
    19    C    4  py     Val( 2p)     0.97186       0.16483
    20    C    4  pz     Val( 2p)     1.03933       0.04155
 
    21    C    5  S      Cor( 1S)     1.99985     -10.98522
    22    C    5  S      Val( 2S)     1.05938      -0.18168
    23    C    5  px     Val( 2p)     0.90017       0.12887
    24    C    5  py     Val( 2p)     0.96555       0.16749
    25    C    5  pz     Val( 2p)     0.96257       0.05386
 
    26    C    6  S      Cor( 1S)     1.99990     -10.94367
    27    C    6  S      Val( 2S)     1.08237      -0.18396
    28    C    6  px     Val( 2p)     0.98390       0.13526
    29    C    6  py     Val( 2p)     0.94942       0.15434
    30    C    6  pz     Val( 2p)     1.00795       0.06121
 
    31    N    7  S      Cor( 1S)     1.99998     -15.26743
    32    N    7  S      Val( 2S)     1.40719      -0.59374
    33    N    7  px     Val( 2p)     1.42617      -0.11719
    34    N    7  py     Val( 2p)     1.07235       0.01349
    35    N    7  pz     Val( 2p)     1.36841      -0.09968
 
    36    C    8  S      Cor( 1S)     1.99996     -11.00550
    37    C    8  S      Val( 2S)     1.10890      -0.23068
    38    C    8  px     Val( 2p)     0.97122       0.07631
    39    C    8  py     Val( 2p)     0.96131       0.11304
    40    C    8  pz     Val( 2p)     0.93931       0.10972
 
    41    C    9  S      Cor( 1S)     1.99996     -11.04911
    42    C    9  S      Val( 2S)     1.11245      -0.25557
    43    C    9  px     Val( 2p)     0.92099       0.08738
    44    C    9  py     Val( 2p)     0.84226       0.12796
    45    C    9  pz     Val( 2p)     0.95291       0.08129
 
    46    C   10  S      Cor( 1S)     1.99993     -11.01778
    47    C   10  S      Val( 2S)     1.09775      -0.22021
    48    C   10  px     Val( 2p)     0.99337       0.08559
    49    C   10  py     Val( 2p)     0.94476       0.08219
    50    C   10  pz     Val( 2p)     0.89036       0.12112
 
    51    C   11  S      Cor( 1S)     1.99994     -10.97883
    52    C   11  S      Val( 2S)     1.10401      -0.21343
    53    C   11  px     Val( 2p)     1.00009       0.08417
    54    C   11  py     Val( 2p)     0.99070       0.08837
    55    C   11  pz     Val( 2p)     0.99068       0.08392
 
    56    C   12  S      Cor( 1S)     1.99996     -10.97677
    57    C   12  S      Val( 2S)     1.09127      -0.19891
    58    C   12  px     Val( 2p)     1.01060       0.08832
    59    C   12  py     Val( 2p)     0.97957       0.09004
    60    C   12  pz     Val( 2p)     0.99269       0.09088
 
    61    C   13  S      Cor( 1S)     1.99998     -11.00435
    62    C   13  S      Val( 2S)     1.10476      -0.22786
    63    C   13  px     Val( 2p)     0.93863       0.11030
    64    C   13  py     Val( 2p)     0.95054       0.10911
    65    C   13  pz     Val( 2p)     0.95608       0.09899
 
    66    N   14  S      Cor( 1S)     1.99999     -15.24079
    67    N   14  S      Val( 2S)     1.42882      -0.58542
    68    N   14  px     Val( 2p)     1.32467      -0.06358
    69    N   14  py     Val( 2p)     1.25012      -0.03338
    70    N   14  pz     Val( 2p)     1.27620      -0.04842
 
    71    C   15  S      Cor( 1S)     1.99993     -11.01053
    72    C   15  S      Val( 2S)     1.06949      -0.19231
    73    C   15  px     Val( 2p)     0.99658       0.07604
    74    C   15  py     Val( 2p)     0.89415       0.11887
    75    C   15  pz     Val( 2p)     1.00167       0.07903
 
    76    C   16  S      Cor( 1S)     1.99997     -10.97781
    77    C   16  S      Val( 2S)     1.08077      -0.19104
    78    C   16  px     Val( 2p)     1.01932       0.08675
    79    C   16  py     Val( 2p)     0.99649       0.08880
    80    C   16  pz     Val( 2p)     0.97852       0.09243
 
    81    C   17  S      Cor( 1S)     1.99996     -10.97980
    82    C   17  S      Val( 2S)     1.08568      -0.19502
    83    C   17  px     Val( 2p)     1.01017       0.08703
    84    C   17  py     Val( 2p)     0.98509       0.09054
    85    C   17  pz     Val( 2p)     0.98761       0.09161
 
    86    C   18  S      Cor( 1S)     1.99995     -10.97504
    87    C   18  S      Val( 2S)     1.09173      -0.19535
    88    C   18  px     Val( 2p)     1.01927       0.09502
    89    C   18  py     Val( 2p)     0.98544       0.08769
    90    C   18  pz     Val( 2p)     0.97971       0.09196
 
    91    C   19  S      Cor( 1S)     1.99994     -11.00023
    92    C   19  S      Val( 2S)     1.07252      -0.18590
    93    C   19  px     Val( 2p)     0.90012       0.11842
    94    C   19  py     Val( 2p)     0.99452       0.08472
    95    C   19  pz     Val( 2p)     0.99948       0.08573
 
    96    C   20  S      Cor( 1S)     1.99992     -10.98431
    97    C   20  S      Val( 2S)     1.09988      -0.21225
    98    C   20  px     Val( 2p)     0.96988       0.08419
    99    C   20  py     Val( 2p)     0.96947       0.09195
   100    C   20  pz     Val( 2p)     1.03432       0.07522
 
   101    C   21  S      Cor( 1S)     1.99994     -11.00813
   102    C   21  S      Val( 2S)     1.11095      -0.23882
   103    C   21  px     Val( 2p)     0.97251       0.08166
   104    C   21  py     Val( 2p)     0.99119       0.06866
   105    C   21  pz     Val( 2p)     1.00984       0.06428
 
   106    C   22  S      Cor( 1S)     1.99991     -11.11172
   107    C   22  S      Val( 2S)     1.05481      -0.26058
   108    C   22  px     Val( 2p)     0.87849       0.07746
   109    C   22  py     Val( 2p)     0.80631       0.11240
   110    C   22  pz     Val( 2p)     0.85758       0.08619
 
   111    O   23  S      Cor( 1S)     1.99999     -20.09809
   112    O   23  S      Val( 2S)     1.80822      -1.05793
   113    O   23  px     Val( 2p)     1.77207      -0.29641
   114    O   23  py     Val( 2p)     1.40101      -0.15517
   115    O   23  pz     Val( 2p)     1.33008      -0.12853
 
   116    O   24  S      Cor( 1S)     1.99999     -20.21514
   117    O   24  S      Val( 2S)     1.72991      -1.02763
   118    O   24  px     Val( 2p)     1.26790      -0.11740
   119    O   24  py     Val( 2p)     1.61649      -0.27279
   120    O   24  pz     Val( 2p)     1.65261      -0.29362
 
   121    C   25  S      Cor( 1S)     1.99984     -11.04536
   122    C   25  S      Val( 2S)     1.07698      -0.22700
   123    C   25  px     Val( 2p)     0.87362       0.07103
   124    C   25  py     Val( 2p)     1.04305       0.03654
   125    C   25  pz     Val( 2p)     0.97182       0.05628
 
   126    C   26  S      Cor( 1S)     1.99992     -11.01386
   127    C   26  S      Val( 2S)     1.06554      -0.19470
   128    C   26  px     Val( 2p)     1.00836       0.06500
   129    C   26  py     Val( 2p)     1.00876       0.06269
   130    C   26  pz     Val( 2p)     0.93438       0.09056
 
   131    C   27  S      Cor( 1S)     1.99995     -10.98155
   132    C   27  S      Val( 2S)     1.08266      -0.18647
   133    C   27  px     Val( 2p)     0.98092       0.09703
   134    C   27  py     Val( 2p)     1.02184       0.08792
   135    C   27  pz     Val( 2p)     1.00045       0.09250
 
   136    C   28  S      Cor( 1S)     1.99990     -10.95534
   137    C   28  S      Val( 2S)     1.07863      -0.18296
   138    C   28  px     Val( 2p)     0.95529       0.11873
   139    C   28  py     Val( 2p)     0.96725       0.15655
   140    C   28  pz     Val( 2p)     0.98263       0.09552
 
   141    C   29  S      Cor( 1S)     1.99992     -10.94609
   142    C   29  S      Val( 2S)     1.07673      -0.17734
   143    C   29  px     Val( 2p)     0.99334       0.09383
   144    C   29  py     Val( 2p)     0.98601       0.13561
   145    C   29  pz     Val( 2p)     1.00792       0.08164
 
   146    C   30  S      Cor( 1S)     1.99994     -10.94658
   147    C   30  S      Val( 2S)     1.08393      -0.18119
   148    C   30  px     Val( 2p)     0.98348       0.10498
   149    C   30  py     Val( 2p)     0.98361       0.13717
   150    C   30  pz     Val( 2p)     0.98218       0.09564
 
   151    C   31  S      Cor( 1S)     1.99993     -10.93988
   152    C   31  S      Val( 2S)     1.07158      -0.17150
   153    C   31  px     Val( 2p)     1.01418       0.09161
   154    C   31  py     Val( 2p)     0.98440       0.14228
   155    C   31  pz     Val( 2p)     1.01759       0.08308
 
   156    C   32  S      Cor( 1S)     1.99985     -10.98895
   157    C   32  S      Val( 2S)     1.05983      -0.18464
   158    C   32  px     Val( 2p)     0.91975       0.11088
   159    C   32  py     Val( 2p)     0.96957       0.14608
   160    C   32  pz     Val( 2p)     0.93210       0.08995
 
   161    C   33  S      Cor( 1S)     1.99990     -10.94968
   162    C   33  S      Val( 2S)     1.08556      -0.19367
   163    C   33  px     Val( 2p)     0.99550       0.09979
   164    C   33  py     Val( 2p)     0.94786       0.13799
   165    C   33  pz     Val( 2p)     0.99352       0.09608
 
   166    N   34  S      Cor( 1S)     1.99998     -15.26645
   167    N   34  S      Val( 2S)     1.39286      -0.58553
   168    N   34  px     Val( 2p)     1.17945      -0.02267
   169    N   34  py     Val( 2p)     1.20133      -0.03353
   170    N   34  pz     Val( 2p)     1.49770      -0.14522
 
   171    C   35  S      Cor( 1S)     1.99996     -11.01307
   172    C   35  S      Val( 2S)     1.10360      -0.23653
   173    C   35  px     Val( 2p)     0.95263       0.09578
   174    C   35  py     Val( 2p)     0.95753       0.10952
   175    C   35  pz     Val( 2p)     0.97513       0.06737
 
   176    C   36  S      Cor( 1S)     1.99996     -11.04993
   177    C   36  S      Val( 2S)     1.11392      -0.25584
   178    C   36  px     Val( 2p)     0.93398       0.09832
   179    C   36  py     Val( 2p)     0.87995       0.11254
   180    C   36  pz     Val( 2p)     0.89356       0.09378
 
   181    C   37  S      Cor( 1S)     1.99991     -11.03374
   182    C   37  S      Val( 2S)     1.10895      -0.25043
   183    C   37  px     Val( 2p)     0.98182       0.06225
   184    C   37  py     Val( 2p)     0.85682       0.08770
   185    C   37  pz     Val( 2p)     0.98380       0.06715
 
   186    C   38  S      Cor( 1S)     1.99993     -10.97912
   187    C   38  S      Val( 2S)     1.10870      -0.21780
   188    C   38  px     Val( 2p)     1.01159       0.07888
   189    C   38  py     Val( 2p)     0.99148       0.08930
   190    C   38  pz     Val( 2p)     0.97279       0.08739
 
   191    C   39  S      Cor( 1S)     1.99996     -10.98046
   192    C   39  S      Val( 2S)     1.09090      -0.20209
   193    C   39  px     Val( 2p)     1.01882       0.08251
   194    C   39  py     Val( 2p)     0.97684       0.08514
   195    C   39  pz     Val( 2p)     0.98791       0.08998
 
   196    C   40  S      Cor( 1S)     1.99998     -11.01314
   197    C   40  S      Val( 2S)     1.09908      -0.22766
   198    C   40  px     Val( 2p)     0.93222       0.10745
   199    C   40  py     Val( 2p)     0.95129       0.10149
   200    C   40  pz     Val( 2p)     0.95853       0.09864
 
   201    N   41  S      Cor( 1S)     1.99999     -15.41845
   202    N   41  S      Val( 2S)     1.39308      -0.65859
   203    N   41  px     Val( 2p)     1.20650      -0.12614
   204    N   41  py     Val( 2p)     1.16526      -0.10301
   205    N   41  pz     Val( 2p)     1.20217      -0.11198
 
   206    C   42  S      Cor( 1S)     1.99992     -11.03902
   207    C   42  S      Val( 2S)     1.09130      -0.23593
   208    C   42  px     Val( 2p)     1.00591       0.05072
   209    C   42  py     Val( 2p)     0.96955       0.05906
   210    C   42  pz     Val( 2p)     0.88329       0.08434
 
   211    C   43  S      Cor( 1S)     1.99995     -10.99255
   212    C   43  S      Val( 2S)     1.08741      -0.20661
   213    C   43  px     Val( 2p)     0.95283       0.09347
   214    C   43  py     Val( 2p)     0.99924       0.07718
   215    C   43  pz     Val( 2p)     1.02390       0.07883
 
   216    C   44  S      Cor( 1S)     1.99994     -10.98834
   217    C   44  S      Val( 2S)     1.09185      -0.20691
   218    C   44  px     Val( 2p)     1.00753       0.08157
   219    C   44  py     Val( 2p)     0.97365       0.09001
   220    C   44  pz     Val( 2p)     0.98941       0.08460
 
   221    C   45  S      Cor( 1S)     1.99993     -10.98656
   222    C   45  S      Val( 2S)     1.09887      -0.20937
   223    C   45  px     Val( 2p)     0.99128       0.08575
   224    C   45  py     Val( 2p)     0.97605       0.08169
   225    C   45  pz     Val( 2p)     1.00061       0.08729
 
   226    C   46  S      Cor( 1S)     1.99993     -11.03284
   227    C   46  S      Val( 2S)     1.09488      -0.23421
   228    C   46  px     Val( 2p)     0.87511       0.08984
   229    C   46  py     Val( 2p)     1.00282       0.05072
   230    C   46  pz     Val( 2p)     0.98269       0.05752
 
   231    C   47  S      Cor( 1S)     1.99991     -10.97452
   232    C   47  S      Val( 2S)     1.10316      -0.20215
   233    C   47  px     Val( 2p)     0.98869       0.10072
   234    C   47  py     Val( 2p)     1.02505       0.09422
   235    C   47  pz     Val( 2p)     0.94401       0.10540
 
   236    C   48  S      Cor( 1S)     1.99994     -11.00353
[...]
 NLMO      Total    Paramagnetic  Diamagnetic   Paramagnetic  Diamagnetic
   89      -0.3162        0.3192      -0.6354        -1.0524       0.7362
  102       1.6152        0.0697       1.5455         0.6451       0.9700
  103       0.3012        1.3520      -1.0508        -0.5782       0.8794
  104       0.0865        1.1645      -1.0780        -0.8620       0.9485
  105       0.5911        2.9940      -2.4029        -0.5187       1.1099
  106      26.3459       -0.1961      26.5421         0.5327      25.8133
  107       1.9196        3.6244      -1.7048         0.0762       1.8434
  108       0.0489       -0.2652       0.3142        -1.0784       1.1274
 Sum       30.5923        9.0625      21.5298        -2.8357      33.4280

 Contributions to Isotropic shielding for atom   95 (    30.9742 ppm):
                         Standard Origin              Atomic Origin
 NLMO      Total    Paramagnetic  Diamagnetic   Paramagnetic  Diamagnetic
   89      -0.5637        0.4072      -0.9709        -1.1355       0.5718
   99      -0.5835        0.4740      -1.0575        -1.4517       0.8682
  102       1.7824       -1.0089       2.7913         0.8797       0.9027
  103       0.0528        1.2599      -1.2072        -0.9302       0.9830
  105       0.7081        2.3394      -1.6313        -0.4679       1.1760
  106       1.6770        3.6676      -1.9906        -0.1583       1.8352
  107      25.7590       -0.1254      25.8844         0.5223      25.2367
  109       0.0987       -0.2057       0.3045        -0.9106       1.0093
  195       0.2274       -1.0550       1.2825         1.1485      -0.9210
 Sum       29.1581        5.7531      23.4051        -2.5037      31.6618

 Contributions to Isotropic shielding for atom   96 (    32.5346 ppm):
                         Standard Origin              Atomic Origin
 NLMO      Total    Paramagnetic  Diamagnetic   Paramagnetic  Diamagnetic
   90      -0.1413        1.1602      -1.3015        -0.8131       0.6718
   94      -0.2175        0.7423      -0.9599        -1.1623       0.9448
   97       1.8772       -1.0434       2.9206         0.9211       0.9561
  105       1.3426       -0.0359       1.3786         0.2039       1.1388
  106       0.0435        0.0989      -0.0554        -0.9796       1.0231
  108      26.5484        0.1847      26.3638         0.4861      26.0624
  109       1.4788        4.0144      -2.5356        -0.3623       1.8412
 Sum       30.9317        5.1212      25.8105        -1.7064      32.6381

 Contributions to Isotropic shielding for atom   97 (    32.0130 ppm):
                         Standard Origin              Atomic Origin
 NLMO      Total    Paramagnetic  Diamagnetic   Paramagnetic  Diamagnetic
   89      -0.4288        0.3731      -0.8018        -1.1495       0.7208
   94      -0.1941        1.4759      -1.6700        -0.7201       0.5260
   97       0.9568        1.7415      -0.7847        -0.0142       0.9711
   98      -0.3567        1.7813      -2.1380        -1.3413       0.9846
  105       0.6674        2.8575      -2.1901        -0.4136       1.0810
  106       0.3270        1.0538      -0.7268        -0.5343       0.8613
  107       0.0680        0.8391      -0.7711        -1.0455       1.1134
  108       1.8955        3.1382      -1.2427         0.1677       1.7278
  109      26.4736       -0.4021      26.8757         0.7258      25.7479
 Sum       29.4089       12.8584      16.5505        -4.3251      33.7340

 Contributions to Isotropic shielding for atom   98 (    32.9759 ppm):
                         Standard Origin              Atomic Origin
 NLMO      Total    Paramagnetic  Diamagnetic   Paramagnetic  Diamagnetic
   71      -0.0309       -1.1188       1.0878        -1.0542       1.0233
   80       0.3005       -0.9900       1.2905        -0.7941       1.0946
   81       0.2918       -0.8574       1.1492        -0.5054       0.7972
   85       1.0152        0.6149       0.4003         0.3881       0.6271
  110       1.3820       -0.8625       2.2446         0.5705       0.8115
  111      25.9300        0.5674      25.3626         0.4547      25.4753
  112       1.9259        0.6419       1.2840         0.0006       1.9253
  121       0.0384       -1.1899       1.2282        -0.7640       0.8023
 Sum       30.8529       -3.1943      34.0472        -1.7036      32.5565

 Contributions to Isotropic shielding for atom   99 (    31.3530 ppm):
                         Standard Origin              Atomic Origin
 NLMO      Total    Paramagnetic  Diamagnetic   Paramagnetic  Diamagnetic
   85       0.2572        1.9663      -1.7091        -0.5523       0.8095
   87       0.0361       -1.1199       1.1560        -0.8013       0.8373
   98       0.1195       -0.8902       1.0098        -0.5418       0.6614
  110       1.0148        0.7855       0.2293         0.2925       0.7223
  111       1.9975        0.0401       1.9575         0.0773       1.9202
  112      25.4357        0.0902      25.3455         0.5344      24.9013
  115       0.0586       -1.0162       1.0748        -0.5198       0.5784
  118       0.7494       -1.3720       2.1214        -0.0827       0.8322
  120       1.3960       -0.6809       2.0770         0.5443       0.8517
  121      -0.2385       -3.3601       3.1216        -1.2786       1.0401
  123       0.2732       -1.2085       1.4817        -0.4820       0.7552
  191      -0.7070        1.5498      -2.2568         0.2601      -0.9671
  195      -0.1194        1.0143      -1.1338         0.9045      -1.0239
 Sum       30.2732       -4.2017      34.4749        -1.6453      31.9185

 Contributions to Isotropic shielding for atom  100 (    31.2751 ppm):
                         Standard Origin              Atomic Origin
 NLMO      Total    Paramagnetic  Diamagnetic   Paramagnetic  Diamagnetic
   71       0.1692       -0.7338       0.9030        -0.9704       1.1396
   84       0.1698       -0.9171       1.0869        -0.6436       0.8134
   89       0.9805       -0.6757       1.6562         0.0757       0.9048
   90      -0.0723       -1.0382       0.9659        -0.7926       0.7203
   99       0.5685       -0.5230       1.0915        -0.1364       0.7049
  100       0.3916        1.2476      -0.8561        -0.0627       0.4543
  103       0.1495       -0.9661       1.1155        -0.5830       0.7325
  104      -0.0007       -1.4419       1.4412        -0.8024       0.8016
  110       1.0886       -0.7068       1.7954         0.2558       0.8328
  113      26.2072        0.6254      25.5817         0.6101      25.5971
  114       1.6898       -0.3054       1.9951        -0.1437       1.8335
 Sum       31.3415       -5.4349      36.7764        -3.1933      34.5348

 Contributions to Isotropic shielding for atom  101 (    30.9368 ppm):
                         Standard Origin              Atomic Origin
 NLMO      Total    Paramagnetic  Diamagnetic   Paramagnetic  Diamagnetic
  100      -0.0230        1.6852      -1.7081        -0.7911       0.7681
  101       0.1461       -1.1299       1.2760        -0.8738       1.0199
  103      -0.0519       -1.4237       1.3718        -0.8767       0.8247
  112       0.1535       -0.3561       0.5096        -0.8786       1.0321
  113       1.9568       -0.4041       2.3609         0.2645       1.6923
  114      25.7425        0.5896      25.1529         0.8209      24.9216
  195       0.0304        1.0967      -1.0663         0.8526      -0.8221
 Sum       27.9543        0.0576      27.8967        -1.4823      29.4367

 Contributions to Isotropic shielding for atom  102 (    29.8043 ppm):
                         Standard Origin              Atomic Origin
 NLMO      Total    Paramagnetic  Diamagnetic   Paramagnetic  Diamagnetic
   89      -0.6507        0.4006      -1.0514        -1.5499       0.8991
   97      -0.1822        0.7010      -0.8832        -1.0036       0.8214
   98       1.5708       -0.7046       2.2754         0.6632       0.9076
  107      -0.2442       -1.0005       0.7563        -0.8095       0.5653
  115       1.2975       -0.1443       1.4418         0.4242       0.8733
  116      25.2379        0.0625      25.1754         0.5986      24.6393
  117       1.0011        3.8247      -2.8236        -0.9185       1.9196
  118      -0.3958        0.3470      -0.7428        -1.3494       0.9536
  119       0.2941        1.2077      -0.9136        -0.2172       0.5113
  122       0.7381       -1.0350       1.7731        -0.4736       1.2117
  193      -1.1004        0.6721      -1.7725         0.3051      -1.4055
 Sum       27.5661        4.3313      23.2349        -4.3307      31.8968

 Contributions to Isotropic shielding for atom  103 (    31.7129 ppm):
                         Standard Origin              Atomic Origin
 NLMO      Total    Paramagnetic  Diamagnetic   Paramagnetic  Diamagnetic
   94      -0.3618        1.3699      -1.7317        -1.3268       0.9650
   97      -0.2273        1.5320      -1.7594        -0.8370       0.6097
   98       0.8761        1.9864      -1.1103        -0.1038       0.9799
  109      -0.0387       -1.1302       1.0915        -0.8323       0.7936
  115       0.6826        3.1104      -2.4278        -0.4257       1.1083
  116       1.8766        3.7759      -1.8993        -0.1648       2.0414
  117      26.9527       -0.8203      27.7730         0.8638      26.0889
  119      -0.2319        0.5720      -0.8039        -1.3719       1.1399
  122       0.2062       -0.3696       0.5758        -0.9115       1.1177
 Sum       29.7346       10.0267      19.7078        -5.1100      34.8446

 Contributions to Isotropic shielding for atom  104 (    31.3643 ppm):
                         Standard Origin              Atomic Origin
 NLMO      Total    Paramagnetic  Diamagnetic   Paramagnetic  Diamagnetic
   81      -0.6405        1.2546      -1.8951        -1.3366       0.6961
   82      -0.1201        0.3818      -0.5019        -1.0872       0.9671
   86      -0.4799        1.6929      -2.1728        -1.5973       1.1174
   87       1.4726        1.3621       0.1105         0.5465       0.9261
   93      -0.0710       -1.6536       1.5826        -0.8395       0.7685
  115       0.6929        4.4969      -3.8041        -0.5758       1.2687
  117      -0.0775       -0.6525       0.5751        -1.2261       1.1486
  118       0.7520        4.5114      -3.7595        -0.3580       1.1099
  119      26.2641       -0.9388      27.2029         0.5650      25.6991
  122      -0.3736       -0.0356      -0.3380        -1.7175       1.3439
  127      -0.2274       -1.9343       1.7069        -0.7012       0.4738
 Sum       27.1916        8.4850      18.7066        -8.3276      35.5192

 Contributions to Isotropic shielding for atom  105 (    30.5726 ppm):
                         Standard Origin              Atomic Origin
 NLMO      Total    Paramagnetic  Diamagnetic   Paramagnetic  Diamagnetic
  120      -0.5423        0.2016      -0.7439        -1.4468       0.9044
  121      -0.1342        0.5515      -0.6856        -1.6787       1.5445
  122      -0.1168        0.2207      -0.3375        -1.0061       0.8894
  123       2.6063       -5.0416       7.6479         1.2020       1.4043
  124      25.7996        1.0445      24.7551         0.6940      25.1056
  125       1.5618        0.4218       1.1399        -0.4745       2.0363
  126       1.5737       -0.0998       1.6735        -0.2904       1.8641
  193       0.5684        1.0824      -0.5140         0.6110      -0.0426
  194       0.1419       -1.0097       1.1517        -0.4159       0.5578
 Sum       31.4585       -2.6286      34.0871        -2.8053      34.2638

 Contributions to Isotropic shielding for atom  106 (    30.6227 ppm):
                         Standard Origin              Atomic Origin
 NLMO      Total    Paramagnetic  Diamagnetic   Paramagnetic  Diamagnetic
  120      -0.4794        0.0549      -0.5342        -1.1080       0.6286
  121       0.0208        0.6470      -0.6261        -1.0232       1.0441
  123       0.4958        3.0632      -2.5674        -1.5918       2.0876
  124       1.7796        0.2010       1.5786        -0.2203       1.9999
  125      26.1657        0.3993      25.7664         0.8816      25.2841
  126       0.8942        3.4729      -2.5787        -1.0800       1.9742
  193       0.5790       -0.9537       1.5327         1.0472      -0.4682
 Sum       29.4557        6.8846      22.5712        -3.0946      32.5503

 Contributions to Isotropic shielding for atom  107 (    30.6002 ppm):
                         Standard Origin              Atomic Origin
 NLMO      Total    Paramagnetic  Diamagnetic   Paramagnetic  Diamagnetic
  120      -1.0743        0.5576      -1.6319        -1.9632       0.8889
  121      -0.2849        1.5811      -1.8660        -1.8446       1.5597
  122      -0.8657        0.3438      -1.2095        -1.6409       0.7752
  123       0.8425        1.0166      -0.1741        -0.6617       1.5041
  124       1.9253       -0.8251       2.7504         0.0548       1.8705
  125       1.1963        3.6805      -2.4843        -0.8349       2.0311
  126      26.3584        0.5533      25.8051         0.9944      25.3639
  191       0.4112       -1.2442       1.6554         1.1785      -0.7673
  193       1.3182       -0.4467       1.7648         1.3668      -0.0487
 Sum       29.8267        5.2169      24.6098        -3.3508      33.1775

 Contributions to Isotropic shielding for atom  108 (    31.5153 ppm):
                         Standard Origin              Atomic Origin
 NLMO      Total    Paramagnetic  Diamagnetic   Paramagnetic  Diamagnetic
   76      -0.5199        0.0482      -0.5681        -1.3565       0.8367
   81      -0.6020        1.6093      -2.2113        -1.3264       0.7245
   82       1.2274       -0.8266       2.0540         0.0289       1.1986
   86      -0.2544        0.8116      -1.0660        -1.0041       0.7497
   87      -0.2015        0.9179      -1.1194        -1.0964       0.8949
  119      -0.1729       -1.4050       1.2320        -0.7015       0.5286
  121      -0.1311        0.2096      -0.3407        -1.1926       1.0615
  127      26.0257        0.1531      25.8726         0.5945      25.4312
  128       1.8013        2.5347      -0.7334        -0.1887       1.9899
  129       1.1191        2.8239      -1.7048        -0.6927       1.8118
  190       1.3386        0.1136       1.2249         1.3182       0.0204
 Sum       29.6303        6.9903      22.6400        -5.6173      35.2476

 Contributions to Isotropic shielding for atom  109 (    30.8187 ppm):
                         Standard Origin              Atomic Origin
 NLMO      Total    Paramagnetic  Diamagnetic   Paramagnetic  Diamagnetic
   75      -0.5374        0.5995      -1.1368        -1.2481       0.7108
   76      -0.7814        0.1465      -0.9279        -2.1411       1.3598
   79      -0.3259        0.9722      -1.2981        -0.9638       0.6379
   82       1.8920       -1.9839       3.8759         0.6902       1.2018
  127       1.6326        2.5719      -0.9393        -0.3352       1.9679
  128      25.8528        0.3305      25.5222         0.5633      25.2895
  129       1.3785        2.1289      -0.7503        -0.4210       1.7996
 Sum       29.1113        4.7656      24.3457        -3.8559      32.9672

 Contributions to Isotropic shielding for atom  110 (    31.9595 ppm):
                         Standard Origin              Atomic Origin
 NLMO      Total    Paramagnetic  Diamagnetic   Paramagnetic  Diamagnetic
   75      -0.3479        0.8224      -1.1703        -0.9363       0.5884
   76      -1.0870        0.3511      -1.4381        -2.2473       1.1604
   79      -0.4314        1.1898      -1.6212        -0.9688       0.5374
   81      -0.4194        0.8093      -1.2288        -0.6619       0.2424
   82       1.4703       -1.3822       2.8524         0.6901       0.7802
   86      -0.1251        0.2477      -0.3727        -1.1909       1.0658
  127       1.7808        3.5181      -1.7373        -0.1214       1.9022
  128       1.8816        2.4465      -0.5649        -0.0210       1.9026
  129      26.7307        0.5052      26.2255         1.0044      25.7262
 Sum       29.4526        8.5079      20.9446        -4.4530      33.9056
 
 1\1\GINC-PCSN02\SP\RHF\STO-3G\C45H56N4O5\ABENIDD\30-May-2024\0\\# nmr=
 giao hf/sto-3g pop=nbo geom=connectivity\\Pleiokomenine_C_2\\0,1\C,0,0
 .,0.,0.\C,0,1.4012,0.,0.\C,0,2.0873,1.2316,0.\C,0,1.3948,2.4517,-0.022
 8\C,0,0.0115,2.4389,-0.0786\C,0,-0.6691,1.2114,-0.0553\N,0,-0.8778,3.5
 423,-0.1893\C,0,-2.1536,1.4709,-0.0663\C,0,-2.105,2.9019,-0.7325\C,0,-
 3.0898,0.5658,-0.8832\C,0,-1.9474,2.7323,-2.3081\C,0,-3.1436,1.9869,-2
 .9121\C,0,-4.0291,1.4523,-1.7701\N,0,-3.7509,-0.2849,0.1119\C,0,-4.942
 2,-0.9773,-0.3615\C,0,-5.909,-0.1282,-1.1853\C,0,-5.1848,0.6016,-2.315
 4\C,0,-2.6341,1.3105,1.3949\C,0,-3.9223,0.5001,1.3273\C,0,-4.5751,2.72
 5,-1.0365\C,0,-3.4303,3.6655,-0.5664\C,0,-3.7086,4.2721,0.7974\O,0,-4.
 5449,3.8611,1.5925\O,0,-2.9532,5.3892,0.9913\C,0,-3.1319,6.0029,2.2674
 \C,0,-0.3393,4.7584,-0.7797\C,0,2.1595,-1.31,-0.0387\C,0,2.067,-1.9966
 ,-1.3867\C,0,0.9489,-2.7849,-1.6942\C,0,3.0502,-1.7688,-2.3744\C,0,2.9
 383,-2.3207,-3.6586\C,0,1.8288,-3.0876,-3.9583\C,0,0.8315,-3.2885,-2.9
 782\N,0,1.5124,-3.7545,-5.1724\C,0,-0.3334,-3.9811,-3.6488\C,0,0.5145,
 -4.7514,-4.7203\C,0,-1.2079,-4.9984,-2.9401\C,0,1.3228,-5.9476,-4.0003
 \C,0,0.3998,-6.8393,-3.1638\C,0,-1.0604,-6.4432,-3.4374\N,0,-2.6385,-4
 .5109,-3.113\C,0,-3.4859,-5.2214,-2.1108\C,0,-3.4576,-6.729,-2.4364\C,
 0,-2.0405,-7.3215,-2.6211\C,0,-1.3127,-2.8103,-3.9629\C,0,-2.4784,-3.0
 411,-2.9852\C,0,-1.2244,-6.5596,-4.9916\C,0,-0.3463,-5.5031,-5.7613\C,
 0,-1.1182,-4.6531,-6.76\O,0,-0.8372,-3.5082,-7.0896\O,0,-2.0823,-5.399
 3,-7.3765\C,0,-2.892,-4.6607,-8.2894\C,0,2.5913,-4.1012,-6.0753\O,0,-3
 .1924,-4.724,-4.3516\H,0,-0.566,-0.9245,0.0348\H,0,3.175,1.2485,0.0069
 \H,0,1.9505,3.3821,-0.0225\H,0,-2.5134,-0.0999,-1.5401\H,0,-1.0269,2.1
 956,-2.5696\H,0,-1.8592,3.7124,-2.7943\H,0,-3.7148,2.6604,-3.5635\H,0,
 -2.7842,1.1719,-3.5527\H,0,-4.6096,-1.8157,-0.9867\H,0,-5.4757,-1.4381
 ,0.4789\H,0,-6.6828,-0.7762,-1.6136\H,0,-6.4286,0.586,-0.5375\H,0,-4.7
 986,-0.1414,-3.0254\H,0,-5.8973,1.2232,-2.8707\H,0,-1.9157,0.7252,1.98
 73\H,0,-2.7488,2.2473,1.9385\H,0,-4.0202,-0.1464,2.2061\H,0,-4.8002,1.
 1478,1.3012\H,0,-5.245,2.4544,-0.2201\H,0,-5.2111,3.2921,-1.7314\H,0,-
 3.4383,4.5285,-1.2499\H,0,-4.155,6.3775,2.3706\H,0,-2.8925,5.2989,3.07
 06\H,0,-2.4441,6.8503,2.3348\H,0,0.1641,4.5662,-1.7339\H,0,0.3744,5.23
 07,-0.096\H,0,-1.1355,5.4864,-0.9625\H,0,3.2139,-1.1483,0.2201\H,0,1.7
 718,-1.9759,0.7436\H,0,0.1646,-2.941,-0.9623\H,0,3.9069,-1.1363,-2.150
 4\H,0,3.7047,-2.1244,-4.3992\H,0,-1.0157,-4.9498,-1.8578\H,0,2.1385,-5
 .5921,-3.3588\H,0,1.8226,-6.5598,-4.7638\H,0,0.5785,-7.8943,-3.4053\H,
 0,0.6416,-6.7214,-2.0997\H,0,-4.4967,-4.8088,-2.1958\H,0,-3.0834,-5.00
 34,-1.1162\H,0,-3.9803,-7.2787,-1.6452\H,0,-4.0253,-6.9089,-3.3579\H,0
 ,-1.6244,-7.47,-1.6152\H,0,-2.1179,-8.32,-3.0679\H,0,-0.9031,-1.8026,-
 3.8252\H,0,-1.6906,-2.8519,-4.9838\H,0,-2.2258,-2.8154,-1.9444\H,0,-3.
 4091,-2.5501,-3.2832\H,0,-2.2744,-6.5434,-5.2897\H,0,-0.887,-7.5605,-5
 .2993\H,0,0.3311,-6.0743,-6.4146\H,0,-3.3512,-3.7998,-7.7928\H,0,-3.69
 ,-5.3191,-8.6436\H,0,-2.2982,-4.3412,-9.1513\H,0,2.2054,-4.654,-6.9375
 \H,0,3.0725,-3.1989,-6.4675\H,0,3.3522,-4.7191,-5.5863\\Version=ES64L-
 G16RevB.01\State=1-A\HF=-2300.2019292\RMSD=3.891e-09\Dipole=0.3173574,
 0.0864971,0.6584495\Quadrupole=-1.6933041,13.3532504,-11.6599463,-6.29
 46029,-2.8821079,-3.6481176\PG=C01 [X(C45H56N4O5)]\\@


 JUST WHEN YOU THINK YOU'VE GOT THE WORLD ON A STRING,
 YOU FIND OUT IT'S YOUR LEASH.
 Job cpu time:       0 days  0 hours 11 minutes 56.6 seconds.
 Elapsed time:       0 days  0 hours  2 minutes  1.0 seconds.
 File lengths (MBytes):  RWF=     67 Int=      0 D2E=      0 Chk=     10 Scr=      1
 Normal termination of Gaussian 16 at Thu May 30 10:05:06 2024.
