 Entering Gaussian System, Link 0=g16
 Input=2_pleiokomenine_2a_c_2.gjf
 Output=2_pleiokomenine_2a_c_2.log
 Initial command:
 /opt/gaussian/g16/l1.exe "/data/abenidd/Elvis/pleiokomenine_C/NMR_HF/2a/2_pleiokomenine_2a_c_2/Gau-27765.inp" -scrdir="/data/abenidd/Elvis/pleiokomenine_C/NMR_HF/2a/2_pleiokomenine_2a_c_2/"
 Entering Link 1 = /opt/gaussian/g16/l1.exe PID=     27767.
  
 Copyright (c) 1988-2017, Gaussian, Inc.  All Rights Reserved.
  
 This is part of the Gaussian(R) 16 program.  It is based on
 the Gaussian(R) 09 system (copyright 2009, Gaussian, Inc.),
 the Gaussian(R) 03 system (copyright 2003, Gaussian, Inc.),
 the Gaussian(R) 98 system (copyright 1998, Gaussian, Inc.),
 the Gaussian(R) 94 system (copyright 1995, Gaussian, Inc.),
 the Gaussian 92(TM) system (copyright 1992, Gaussian, Inc.),
 the Gaussian 90(TM) system (copyright 1990, Gaussian, Inc.),
 the Gaussian 88(TM) system (copyright 1988, Gaussian, Inc.),
 the Gaussian 86(TM) system (copyright 1986, Carnegie Mellon
 University), and the Gaussian 82(TM) system (copyright 1983,
 Carnegie Mellon University). Gaussian is a federally registered
 trademark of Gaussian, Inc.
  
 This software contains proprietary and confidential information,
 including trade secrets, belonging to Gaussian, Inc.
  
 This software is provided under written license and may be
 used, copied, transmitted, or stored only in accord with that
 written license.
  
 The following legend is applicable only to US Government
 contracts under FAR:
  
                    RESTRICTED RIGHTS LEGEND
  
 Use, reproduction and disclosure by the US Government is
 subject to restrictions as set forth in subparagraphs (a)
 and (c) of the Commercial Computer Software - Restricted
 Rights clause in FAR 52.227-19.
  
 Gaussian, Inc.
 340 Quinnipiac St., Bldg. 40, Wallingford CT 06492
  
  
 ---------------------------------------------------------------
 Warning -- This program may not be used in any manner that
 competes with the business of Gaussian, Inc. or will provide
 assistance to any competitor of Gaussian, Inc.  The licensee
 of this program is prohibited from giving any competitor of
 Gaussian, Inc. access to this program.  By using this program,
 the user acknowledges that Gaussian, Inc. is engaged in the
 business of creating and licensing software in the field of
 computational chemistry and represents and warrants to the
 licensee that it is not a competitor of Gaussian, Inc. and that
 it will not use this program in any manner prohibited above.
 ---------------------------------------------------------------
  

 Cite this work as:
 Gaussian 16, Revision B.01,
 M. J. Frisch, G. W. Trucks, H. B. Schlegel, G. E. Scuseria, 
 M. A. Robb, J. R. Cheeseman, G. Scalmani, V. Barone, 
 G. A. Petersson, H. Nakatsuji, X. Li, M. Caricato, A. V. Marenich, 
 J. Bloino, B. G. Janesko, R. Gomperts, B. Mennucci, H. P. Hratchian, 
 J. V. Ortiz, A. F. Izmaylov, J. L. Sonnenberg, D. Williams-Young, 
 F. Ding, F. Lipparini, F. Egidi, J. Goings, B. Peng, A. Petrone, 
 T. Henderson, D. Ranasinghe, V. G. Zakrzewski, J. Gao, N. Rega, 
 G. Zheng, W. Liang, M. Hada, M. Ehara, K. Toyota, R. Fukuda, 
 J. Hasegawa, M. Ishida, T. Nakajima, Y. Honda, O. Kitao, H. Nakai, 
 T. Vreven, K. Throssell, J. A. Montgomery, Jr., J. E. Peralta, 
 F. Ogliaro, M. J. Bearpark, J. J. Heyd, E. N. Brothers, K. N. Kudin, 
 V. N. Staroverov, T. A. Keith, R. Kobayashi, J. Normand, 
 K. Raghavachari, A. P. Rendell, J. C. Burant, S. S. Iyengar, 
 J. Tomasi, M. Cossi, J. M. Millam, M. Klene, C. Adamo, R. Cammi, 
 J. W. Ochterski, R. L. Martin, K. Morokuma, O. Farkas, 
 J. B. Foresman, and D. J. Fox, Gaussian, Inc., Wallingford CT, 2016.
 
 ******************************************
 Gaussian 16:  ES64L-G16RevB.01 20-Dec-2017
                30-May-2024 
 ******************************************
 %nprocshared=8
 Will use up to    8 processors via shared memory.
 ----------------------------------------------
 # nmr=giao hf/sto-3g pop=nbo geom=connectivity
 ----------------------------------------------
 1/38=1,57=2,172=1/1;
 2/12=2,17=6,18=5,40=1/2;
 3/6=3,11=9,25=1,30=1/1,2,3,8;
 4//1;
 5/5=2,38=5/2;
 8/6=1,10=90,11=11/1;
 10/13=100,45=16/2;
 6/7=2,8=2,9=2,10=2,28=1,40=1,64=1/1,7;
 99/9=1/99;
 -----------------
 Pleiokomenine_C_2
 -----------------
 Symbolic Z-matrix:
 Charge =  0 Multiplicity = 1
 C                     0.        0.        0. 
 C                     1.4015    0.        0. 
 C                     2.0952    1.2285    0. 
 C                     1.4104    2.4507   -0.0082 
 C                     0.0266    2.4437   -0.0079 
 C                    -0.6617    1.2182    0.0205 
 N                    -0.8565    3.5564   -0.0247 
 C                    -2.1361    1.4968    0.1716 
 C                    -2.138     2.9437   -0.4594 
 C                    -3.1734    0.6257   -0.5495 
 C                    -2.1468    2.8099   -2.0439 
 C                    -3.4115    2.0918   -2.5339 
 C                    -4.1837    1.5459   -1.3161 
 N                    -3.7431   -0.221     0.503 
 C                    -4.9848   -0.8929    0.1448 
 C                    -6.019    -0.0166   -0.5617 
 C                    -5.4055    0.7237   -1.7502 
 C                    -2.4549    1.3139    1.677 
 C                    -3.7681    0.5453    1.7387 
 C                    -4.6295    2.8113   -0.5062 
 C                    -3.4263    3.7212   -0.1379 
 C                    -3.547     4.2997    1.2608 
 O                    -4.2755    3.8628    2.1432 
 O                    -2.7845    5.4223    1.384 
 C                    -2.8198    6.0153    2.6819 
 C                    -0.3565    4.777    -0.6395 
 C                     2.1627   -1.3064    0.0976 
 C                     2.5979   -1.6528    1.5081 
 C                     1.6776   -1.6207    2.5661 
 C                     3.927    -2.0574    1.763 
 C                     4.3588   -2.3863    3.0568 
 C                     3.4576   -2.3009    4.1006 
 C                     2.1189   -1.9366    3.8393 
 N                     3.6851   -2.4953    5.4904 
 C                     1.3492   -2.0438    5.1358 
 C                     2.561    -1.7309    6.0823 
 C                     0.2275   -1.0885    5.5038 
 C                     2.9393   -0.164     5.9717 
 C                     1.7197    0.7365    6.1848 
 C                     0.54     -0.1269    6.659 
 N                    -0.9698   -1.9634    5.8409 
 C                    -2.188    -1.1014    5.8024 
 C                    -2.0598   -0.0339    6.908 
 C                    -0.7204    0.7395    6.9025 
 C                     0.6376   -3.423     5.0247 
 C                    -0.8448   -3.0512    4.8393 
 C                     1.0723   -0.874     7.9302 
 C                     2.2254   -1.8894    7.5828 
 C                     1.992    -3.305     8.089 
 O                     2.4256   -4.3267    7.5726 
 O                     1.369    -3.2813    9.3045 
 C                     1.0564   -4.5735    9.821 
 C                     5.0386   -2.3805    5.9954 
 O                    -0.9298   -2.5754    7.0701 
 H                    -0.5615   -0.9293    0.0414 
 H                     3.1832    1.235     0.0272 
 H                     1.9707    3.3784    0.0015 
 H                    -2.6869   -0.0429   -1.2728 
 H                    -2.096     3.7999   -2.5152 
 H                    -1.2657    2.269    -2.4112 
 H                    -4.0364    2.7857   -3.1102 
 H                    -3.1329    1.285    -3.2231 
 H                    -4.7288   -1.7237   -0.5256 
 H                    -5.4353   -1.361     1.0286 
 H                    -6.8429   -0.6466   -0.9171 
 H                    -6.4576    0.6933    0.1479 
 H                    -5.1094   -0.0116   -2.5097 
 H                    -6.162     1.3665   -2.216 
 H                    -1.6946    0.6908    2.1711 
 H                    -2.4733    2.2398    2.2506 
 H                    -3.7909   -0.1127    2.6141 
 H                    -4.6248    1.2161    1.8145 
 H                    -5.2197    2.5371    0.3683 
 H                    -5.3213    3.4032   -1.1229 
 H                    -3.491     4.6002   -0.7978 
 H                    -2.478     5.3034    3.4399 
 H                    -3.8285    6.3728    2.9107 
 H                    -2.1402    6.8719    2.6813 
 H                     0.0608    4.5944   -1.6362 
 H                     0.4182    5.2313   -0.0126 
 H                    -1.1572    5.5157   -0.7423 
 H                     1.5505   -2.1304   -0.2912 
 H                     3.0347   -1.2452   -0.5664 
 H                     0.6398   -1.3586    2.3941 
 H                     4.644    -2.1148    0.9464 
 H                     5.3871   -2.6852    3.2231 
 H                    -0.0731   -0.5204    4.6107 
 H                     3.4044    0.103     5.0149 
 H                     3.7035    0.0785    6.7232 
 H                     1.9567    1.5225    6.9124 
 H                     1.4735    1.2494    5.2461 
 H                    -3.0492   -1.7561    5.9716 
 H                    -2.2544   -0.6584    4.8034 
 H                    -2.1722   -0.5148    7.8878 
 H                    -2.8896    0.6769    6.8211 
 H                    -0.6197    1.3017    7.8386 
 H                    -0.7904    1.49      6.1031 
 H                     0.9716   -4.0588    4.1965 
 H                     0.7448   -4.0167    5.9319 
 H                    -1.5385   -3.8571    5.0953 
 H                    -1.0694   -2.6326    3.8531 
 H                     0.2605   -1.3262    8.503 
 H                     1.4858   -0.1248    8.6216 
 H                     3.1057   -1.5752    8.1644 
 H                     1.9739   -5.1133    10.0749 
 H                     0.4693   -4.4405    10.7339 
 H                     0.4552   -5.1435    9.1053 
 H                     5.0519   -2.5025    7.0829 
 H                     5.6736   -3.1705    5.5805 
 H                     5.4859   -1.41      5.7552 
 
 Stoichiometry    C45H56N4O5
 Framework group  C1[X(C45H56N4O5)]
 Deg. of freedom   324
 Full point group                 C1      NOp   1
 Largest Abelian subgroup         C1      NOp   1
 Largest concise Abelian subgroup C1      NOp   1
                         Standard orientation:                         
 ---------------------------------------------------------------------
 Center     Atomic      Atomic             Coordinates (Angstroms)
 Number     Number       Type             X           Y           Z
 ---------------------------------------------------------------------
      1          6           0       -1.857123    2.123501   -1.078314
      2          6           0       -1.156377    3.254447   -0.637723
      3          6           0       -1.422126    3.779179    0.644644
      4          6           0       -2.379785    3.196543    1.485010
      5          6           0       -3.067978    2.079903    1.044036
      6          6           0       -2.780916    1.542689   -0.223012
      7          7           0       -4.076273    1.345446    1.723862
      8          6           0       -3.550049    0.255830   -0.386515
      9          6           0       -4.719287    0.585257    0.621476
     10          6           0       -4.144899   -0.130974   -1.747150
     11          6           0       -5.778886    1.516710   -0.112189
     12          6           0       -6.400097    0.805708   -1.322068
     13          6           0       -5.651705   -0.520257   -1.565097
     14          7           0       -3.262305   -1.187434   -2.251268
     15          6           0       -3.801732   -1.958946   -3.362737
     16          6           0       -5.256043   -2.401718   -3.202903
     17          6           0       -6.159976   -1.226648   -2.829978
     18          6           0       -2.552332   -0.884282   -0.060905
     19          6           0       -2.781975   -1.958442   -1.115652
     20          6           0       -5.932144   -1.393882   -0.294646
     21          6           0       -5.523495   -0.666186    1.014827
     22          6           0       -4.881954   -1.605219    2.020925
     23          8           0       -4.403549   -2.701170    1.755887
     24          8           0       -4.973263   -1.094626    3.280994
     25          6           0       -4.367625   -1.905695    4.287378
     26          6           0       -4.870246    2.076783    2.699872
     27          6           0       -0.055231    3.848397   -1.492318
     28          6           0        1.333818    3.377377   -1.108151
     29          6           0        1.606790    2.009681   -0.959021
     30          6           0        2.380603    4.311071   -0.941905
     31          6           0        3.676596    3.905652   -0.588940
     32          6           0        3.922485    2.560225   -0.393142
     33          6           0        2.886464    1.623710   -0.599803
     34          7           0        5.117233    1.929476    0.049379
     35          6           0        3.473070    0.240818   -0.431441
     36          6           0        4.593115    0.651393    0.587949
     37          6           0        2.696425   -0.908691    0.186366
     38          6           0        3.922612    0.977202    2.021404
     39          6           0        3.014665   -0.158364    2.500838
     40          6           0        3.191118   -1.365436    1.566033
     41          7           0        2.772738   -2.048758   -0.817147
     42          6           0        1.706542   -3.033671   -0.468279
     43          6           0        2.021158   -3.612898    0.925943
     44          6           0        2.301300   -2.550887    2.014897
     45          6           0        3.726351   -0.228518   -1.893112
     46          6           0        2.668482   -1.325982   -2.108992
     47          6           0        4.729895   -1.664491    1.579521
     48          6           0        5.566795   -0.500082    0.927514
     49          6           0        6.514410   -0.946655   -0.175770
     50          8           0        6.875042   -0.262972   -1.125017
     51          8           0        7.051739   -2.167118    0.120675
     52          6           0        7.905514   -2.687199   -0.896604
     53          6           0        6.094303    2.720500    0.770338
     54          8           0        3.968260   -2.724154   -0.857684
     55          1           0       -1.645158    1.672489   -2.043846
     56          1           0       -0.862112    4.640913    1.002868
     57          1           0       -2.555370    3.616488    2.468613
     58          1           0       -4.080389    0.707379   -2.454168
     59          1           0       -6.580862    1.807488    0.578525
     60          1           0       -5.328686    2.459829   -0.446354
     61          1           0       -7.466615    0.621618   -1.141047
     62          1           0       -6.346478    1.460121   -2.200936
     63          1           0       -3.734134   -1.333176   -4.262205
     64          1           0       -3.167778   -2.830499   -3.566866
     65          1           0       -5.605482   -2.838932   -4.145642
     66          1           0       -5.326898   -3.194513   -2.450364
     67          1           0       -6.183037   -0.518681   -3.668687
     68          1           0       -7.188573   -1.580661   -2.691710
     69          1           0       -1.511621   -0.544459   -0.169927
     70          1           0       -2.617094   -1.263929    0.958075
     71          1           0       -1.845426   -2.474487   -1.353101
     72          1           0       -3.491149   -2.713615   -0.774418
     73          1           0       -5.471314   -2.378212   -0.378320
     74          1           0       -7.009855   -1.605213   -0.238702
     75          1           0       -6.461410   -0.354184    1.499869
     76          1           0       -3.305026   -2.056730    4.072287
     77          1           0       -4.888237   -2.864844    4.368789
     78          1           0       -4.455400   -1.381376    5.242891
     79          1           0       -5.276265    3.006713    2.286023
     80          1           0       -4.265555    2.319144    3.580305
     81          1           0       -5.711738    1.470223    3.048215
     82          1           0       -0.225732    3.607253   -2.549536
     83          1           0       -0.119903    4.942025   -1.422882
     84          1           0        0.835410    1.266213   -1.124967
     85          1           0        2.189523    5.373028   -1.083171
     86          1           0        4.457540    4.645866   -0.460074
     87          1           0        1.630473   -0.640608    0.237394
     88          1           0        3.344549    1.909339    2.027570
     89          1           0        4.715892    1.143628    2.763407
     90          1           0        3.256405   -0.418772    3.538680
     91          1           0        1.971151    0.182093    2.503448
     92          1           0        1.722217   -3.809755   -1.240532
     93          1           0        0.745088   -2.510557   -0.493105
     94          1           0        2.898517   -4.267888    0.854274
     95          1           0        1.190287   -4.251524    1.247138
     96          1           0        2.734120   -3.037896    2.896930
     97          1           0        1.326038   -2.157200    2.332806
     98          1           0        3.623980    0.547721   -2.660371
     99          1           0        4.718353   -0.660254   -2.021645
    100          1           0        2.904763   -2.013793   -2.925887
    101          1           0        1.649159   -0.937383   -2.199722
    102          1           0        4.955065   -2.644583    1.154877
    103          1           0        5.052604   -1.760066    2.626918
    104          1           0        6.262072   -0.141786    1.702190
    105          1           0        8.813210   -2.081199   -0.977270
    106          1           0        8.192031   -3.703299   -0.611630
    107          1           0        7.382391   -2.733867   -1.857194
    108          1           0        6.931803    2.093169    1.090912
    109          1           0        6.511964    3.500215    0.124528
    110          1           0        5.663932    3.195460    1.658503
 ---------------------------------------------------------------------
 Rotational constants (GHZ):           0.0945582           0.0320079           0.0295775
 Standard basis: STO-3G (5D, 7F)
 There are   326 symmetry adapted cartesian basis functions of A   symmetry.
 There are   326 symmetry adapted basis functions of A   symmetry.
   326 basis functions,   978 primitive gaussians,   326 cartesian basis functions
   197 alpha electrons      197 beta electrons
       nuclear repulsion energy      8109.4746153556 Hartrees.
 NAtoms=  110 NActive=  110 NUniq=  110 SFac= 1.00D+00 NAtFMM=   60 NAOKFM=T Big=T
 Integral buffers will be    131072 words long.
 Raffenetti 1 integral format.
 Two-electron integral symmetry is turned on.
 One-electron integrals computed using PRISM.
 NBasis=   326 RedAO= T EigKep=  1.73D-01  NBF=   326
 NBsUse=   326 1.00D-06 EigRej= -1.00D+00 NBFU=   326
 ExpMin= 1.69D-01 ExpMax= 1.31D+02 ExpMxC= 1.31D+02 IAcc=3 IRadAn=         5 AccDes= 0.00D+00
 Harris functional with IExCor=  205 and IRadAn=       5 diagonalized for initial guess.
 HarFok:  IExCor=  205 AccDes= 0.00D+00 IRadAn=         5 IDoV= 1 UseB2=F ITyADJ=14
 ICtDFT=  3500011 ScaDFX=  1.000000  1.000000  1.000000  1.000000
 FoFCou: FMM=F IPFlag=           0 FMFlag=      100000 FMFlg1=        2001
         NFxFlg=           0 DoJE=T BraDBF=F KetDBF=T FulRan=T
         wScrn=  0.000000 ICntrl=       500 IOpCl=  0 I1Cent=   200000004 NGrid=           0
         NMat0=    1 NMatS0=      1 NMatT0=    0 NMatD0=    1 NMtDS0=    0 NMtDT0=    0
 Petite list used in FoFCou.
 Requested convergence on RMS density matrix=1.00D-08 within 128 cycles.
 Requested convergence on MAX density matrix=1.00D-06.
 Requested convergence on             energy=1.00D-06.
 No special actions if energy rises.
 Integral accuracy reduced to 1.0D-05 until final iterations.
 Initial convergence to 1.0D-05 achieved.  Increase integral accuracy.
 SCF Done:  E(RHF) =  -2300.20262606     A.U. after   16 cycles
            NFock= 16  Conv=0.38D-08     -V/T= 2.0093
 Range of M.O.s used for correlation:     1   326
 NBasis=   326 NAE=   197 NBE=   197 NFC=     0 NFV=     0
 NROrb=    326 NOA=   197 NOB=   197 NVA=   129 NVB=   129
          Differentiating once with respect to magnetic field using GIAOs.
          Electric field/nuclear overlap derivatives assumed to be zero.
 FoFCou: FMM=F IPFlag=           0 FMFlag=      100000 FMFlg1=        2001
         NFxFlg=           0 DoJE=F BraDBF=F KetDBF=T FulRan=T
         wScrn=  0.000000 ICntrl=      6100 IOpCl=  0 I1Cent=           7 NGrid=         110
         NMat0=    1 NMatS0=      1 NMatT0=    0 NMatD0=    1 NMtDS0=    0 NMtDT0=    0
 Symmetry not used in FoFCou.
 FoFJK:  IHMeth= 1 ICntrl=    6127 DoSepK=F KAlg= 0 I1Cent=           0 FoldK=F
 IRaf=         1 NMat=       1 IRICut=       1 DoRegI=T DoRafI=F ISym2E= 0 IDoP0=0 IntGTp=1.
          There are     3 degrees of freedom in the 1st order CPHF.  IDoFFX=0 NUNeed=     3.
      3 vectors produced by pass  0 Test12= 8.47D-13 3.33D-08 XBig12= 1.84D+02 2.11D+00.
 AX will form     3 AO Fock derivatives at one time.
      3 vectors produced by pass  1 Test12= 8.47D-13 3.33D-08 XBig12= 8.17D-01 2.37D-01.
      3 vectors produced by pass  2 Test12= 8.47D-13 3.33D-08 XBig12= 1.97D-02 3.54D-02.
      3 vectors produced by pass  3 Test12= 8.47D-13 3.33D-08 XBig12= 5.00D-04 7.93D-03.
      3 vectors produced by pass  4 Test12= 8.47D-13 3.33D-08 XBig12= 1.79D-05 1.01D-03.
      3 vectors produced by pass  5 Test12= 8.47D-13 3.33D-08 XBig12= 3.45D-07 8.05D-05.
      3 vectors produced by pass  6 Test12= 8.47D-13 3.33D-08 XBig12= 1.39D-08 2.99D-05.
      3 vectors produced by pass  7 Test12= 8.47D-13 3.33D-08 XBig12= 3.51D-10 3.77D-06.
      3 vectors produced by pass  8 Test12= 8.47D-13 3.33D-08 XBig12= 6.04D-12 2.95D-07.
      2 vectors produced by pass  9 Test12= 8.47D-13 3.33D-08 XBig12= 1.16D-13 7.82D-08.
 InvSVY:  IOpt=1 It=  1 EMax= 5.33D-15
 Solved reduced A of dimension    29 with     3 vectors.
 Calculating GIAO nuclear magnetic shielding tensors.
 SCF GIAO Magnetic shielding tensor (ppm):
      1  C    Isotropic =   123.9298   Anisotropy =   149.3363
   XX=   167.0628   YX=   -36.5869   ZX=    52.5514
   XY=   -32.7917   YY=   135.4065   ZY=   -65.2313
   XZ=    40.0176   YZ=   -54.0044   ZZ=    69.3202
   Eigenvalues:    29.9549   118.3472   223.4874
      2  C    Isotropic =   119.0365   Anisotropy =   162.4673
   XX=   126.0549   YX=   -74.0145   ZX=    62.6672
   XY=   -67.3545   YY=   134.1002   ZY=   -27.0065
   XZ=    56.5481   YZ=   -19.2095   ZZ=    96.9543
   Eigenvalues:    39.0599    90.7016   227.3480
      3  C    Isotropic =   119.1216   Anisotropy =   156.9956
   XX=   137.3278   YX=   -87.9503   ZX=    21.2474
   XY=   -78.6498   YY=   103.9815   ZY=   -45.8056
   XZ=    12.3329   YZ=   -50.3915   ZZ=   116.0556
   Eigenvalues:    26.7466   106.8328   223.7853
      4  C    Isotropic =   133.6713   Anisotropy =   144.3398
   XX=   176.5585   YX=   -39.4326   ZX=    39.8911
   XY=   -45.2902   YY=   145.7106   ZY=   -45.6765
   XZ=    36.1434   YZ=   -52.3093   ZZ=    78.7450
   Eigenvalues:    50.9745   120.1416   229.8979
      5  C    Isotropic =   109.1171   Anisotropy =   128.4145
   XX=   126.6774   YX=   -48.6614   ZX=    48.6161
   XY=   -57.6702   YY=   112.6355   ZY=   -17.3597
   XZ=    57.5067   YZ=    -2.6598   ZZ=    88.0383
   Eigenvalues:    41.2508    91.3737   194.7267
      6  C    Isotropic =   117.3241   Anisotropy =   142.2827
   XX=   154.1837   YX=   -63.7352   ZX=    24.7690
   XY=   -66.4242   YY=   100.0087   ZY=   -29.4893
   XZ=    26.0849   YZ=   -40.5891   ZZ=    97.7798
   Eigenvalues:    50.3586    89.4344   212.1792
      7  N    Isotropic =   274.3625   Anisotropy =    82.2112
   XX=   307.3236   YX=    26.3443   ZX=   -13.5025
   XY=    44.0764   YY=   263.1679   ZY=   -14.0543
   XZ=    -7.6724   YZ=    -3.2387   ZZ=   252.5961
   Eigenvalues:   242.8969   251.0207   329.1700
      8  C    Isotropic =   195.9008   Anisotropy =    11.6641
   XX=   190.0994   YX=    -5.4197   ZX=    -1.5008
   XY=    -2.9423   YY=   195.5280   ZY=     6.9436
   XZ=     0.4910   YZ=    -0.6632   ZZ=   202.0751
   Eigenvalues:   187.7461   196.2796   203.6769
      9  C    Isotropic =   181.1073   Anisotropy =    44.8037
   XX=   174.3750   YX=    22.2495   ZX=    -3.1837
   XY=     8.3868   YY=   172.3759   ZY=    18.2167
   XZ=     5.8257   YZ=    23.6739   ZZ=   196.5711
   Eigenvalues:   152.5230   179.8226   210.9765
     10  C    Isotropic =   190.4079   Anisotropy =    29.4294
   XX=   190.4338   YX=   -12.9551   ZX=     0.8558
   XY=    -9.4685   YY=   196.4022   ZY=    11.9809
   XZ=     0.0101   YZ=    15.7020   ZZ=   184.3878
   Eigenvalues:   172.5441   188.6522   210.0276
     11  C    Isotropic =   213.7576   Anisotropy =    19.9830
   XX=   215.6054   YX=    -7.9380   ZX=     8.1813
   XY=    -8.3841   YY=   213.7183   ZY=     1.3364
   XZ=     8.5028   YZ=    -6.0234   ZZ=   211.9490
   Eigenvalues:   203.6438   210.5493   227.0796
     12  C    Isotropic =   212.7959   Anisotropy =    21.2120
   XX=   208.2923   YX=    -7.7824   ZX=     0.3500
   XY=    -9.3676   YY=   221.3152   ZY=     4.6416
   XZ=    -0.4016   YZ=     6.3751   ZZ=   208.7801
   Eigenvalues:   202.8298   208.6207   226.9372
     13  C    Isotropic =   213.5619   Anisotropy =     9.0558
   XX=   212.8373   YX=     2.4542   ZX=     3.7076
   XY=    -0.6501   YY=   211.9296   ZY=    -1.1460
   XZ=     5.8725   YZ=    -3.0760   ZZ=   215.9189
   Eigenvalues:   208.2519   212.8348   219.5992
     14  N    Isotropic =   302.3401   Anisotropy =    54.0393
   XX=   273.1162   YX=   -42.1368   ZX=     9.5644
   XY=   -40.1994   YY=   311.5766   ZY=     8.9007
   XZ=    26.3886   YZ=    19.7969   ZZ=   322.3275
   Eigenvalues:   240.5107   328.1432   338.3663
     15  C    Isotropic =   205.2006   Anisotropy =    35.1829
   XX=   202.3993   YX=     6.5255   ZX=     5.7481
   XY=     7.6629   YY=   196.4848   ZY=    18.4877
   XZ=     6.0328   YZ=    14.1733   ZZ=   216.7178
   Eigenvalues:   186.5935   200.3525   228.6559
     16  C    Isotropic =   224.1761   Anisotropy =     8.6395
   XX=   227.0852   YX=    -1.6716   ZX=    -2.6737
   XY=    -2.2846   YY=   222.2549   ZY=     2.0349
   XZ=    -1.1646   YZ=     7.0345   ZZ=   223.1882
   Eigenvalues:   218.1588   224.4337   229.9358
     17  C    Isotropic =   215.3161   Anisotropy =    19.8864
   XX=   209.3122   YX=     0.5855   ZX=     5.5360
   XY=    -0.1261   YY=   214.1687   ZY=    10.0819
   XZ=     0.8778   YZ=     7.7587   ZZ=   222.4674
   Eigenvalues:   207.1584   210.2161   228.5737
     18  C    Isotropic =   210.2720   Anisotropy =    37.2767
   XX=   210.5195   YX=   -14.5537   ZX=     7.5564
   XY=   -13.3825   YY=   226.9151   ZY=    11.8478
   XZ=     7.3430   YZ=     3.2374   ZZ=   193.3814
   Eigenvalues:   186.6444   209.0485   235.1232
     19  C    Isotropic =   199.9226   Anisotropy =    41.9395
   XX=   187.6620   YX=   -10.4035   ZX=    16.6980
   XY=   -14.8437   YY=   196.8905   ZY=    -2.8766
   XZ=    20.2348   YZ=    -6.8117   ZZ=   215.2154
   Eigenvalues:   174.3577   197.5279   227.8823
     20  C    Isotropic =   212.1348   Anisotropy =    20.9063
   XX=   205.6390   YX=     6.4558   ZX=     4.2971
   XY=     5.3684   YY=   206.4142   ZY=    -5.2083
   XZ=     2.5414   YZ=    -5.8521   ZZ=   224.3513
   Eigenvalues:   198.5617   211.7705   226.0723
     21  C    Isotropic =   209.0802   Anisotropy =     9.6941
   XX=   209.7177   YX=     4.8255   ZX=     4.6881
   XY=     2.3220   YY=   210.0090   ZY=   -10.7736
   XZ=     4.0487   YZ=    -2.5569   ZZ=   207.5140
   Eigenvalues:   199.0067   212.6911   215.5429
     22  C    Isotropic =    96.2176   Anisotropy =    98.5019
   XX=   148.9638   YX=     8.4037   ZX=   -29.4412
   XY=     4.1202   YY=   158.5807   ZY=    12.1767
   XZ=   -41.0900   YZ=    31.5632   ZZ=   -18.8916
   Eigenvalues:   -28.7449   155.5123   161.8856
     23  O    Isotropic =  -134.1861   Anisotropy =   888.7120
   XX=   275.0979   YX=   366.7382   ZX=   -49.2043
   XY=   381.0583   YY=  -372.5206   ZY=  -124.4491
   XZ=   -57.7000   YZ=  -107.2703   ZZ=  -305.1355
   Eigenvalues:  -570.3558  -290.4910   458.2886
     24  O    Isotropic =   283.4524   Anisotropy =   139.9213
   XX=   309.7966   YX=    65.2800   ZX=   -77.6776
   XY=    99.3904   YY=   216.3590   ZY=   159.3578
   XZ=   -22.6675   YZ=    23.4693   ZZ=   324.2015
   Eigenvalues:   116.1685   357.4553   376.7333
     25  C    Isotropic =   197.3514   Anisotropy =    56.8322
   XX=   187.5676   YX=   -11.4277   ZX=    15.8048
   XY=   -10.8173   YY=   193.2663   ZY=   -23.3160
   XZ=    15.9622   YZ=   -23.5841   ZZ=   211.2203
   Eigenvalues:   177.1249   179.6897   235.2395
     26  C    Isotropic =   209.9268   Anisotropy =    41.8768
   XX=   204.8511   YX=   -11.6574   ZX=   -15.3103
   XY=   -10.8398   YY=   206.6850   ZY=    13.5447
   XZ=   -16.9107   YZ=    11.2819   ZZ=   218.2443
   Eigenvalues:   193.0801   198.8556   237.8447
     27  C    Isotropic =   206.5352   Anisotropy =    18.5145
   XX=   217.4135   YX=     3.1290   ZX=    -5.3438
   XY=     2.4318   YY=   202.9079   ZY=    -6.7708
   XZ=    -0.6889   YZ=    -5.7016   ZZ=   199.2843
   Eigenvalues:   194.5765   206.1510   218.8782
     28  C    Isotropic =   120.6422   Anisotropy =   156.3462
   XX=    62.1620   YX=    19.9833   ZX=   -42.0821
   XY=    12.8649   YY=    88.1560   ZY=    12.4036
   XZ=   -49.2467   YZ=    12.3872   ZZ=   211.6086
   Eigenvalues:    41.4035    95.6500   224.8730
     29  C    Isotropic =   128.0869   Anisotropy =   149.4891
   XX=    88.8695   YX=   -36.4778   ZX=   -34.0062
   XY=   -45.4968   YY=    77.2425   ZY=    -1.9476
   XZ=   -37.6560   YZ=    -5.2241   ZZ=   218.1486
   Eigenvalues:    37.7007   118.8137   227.7462
     30  C    Isotropic =   119.2036   Anisotropy =   148.9840
   XX=   114.2810   YX=    13.8681   ZX=   -26.8335
   XY=    15.7451   YY=    34.6129   ZY=    19.7253
   XZ=   -32.2529   YZ=    20.9920   ZZ=   208.7169
   Eigenvalues:    28.2628   110.8217   218.5263
     31  C    Isotropic =   133.8159   Anisotropy =   142.8105
   XX=    92.7784   YX=   -37.9904   ZX=   -31.4166
   XY=   -31.9612   YY=    88.4261   ZY=     4.4379
   XZ=   -35.2564   YZ=    -3.4433   ZZ=   220.2430
   Eigenvalues:    52.3956   120.0292   229.0228
     32  C    Isotropic =   108.3955   Anisotropy =   129.6244
   XX=    55.6793   YX=    14.4927   ZX=   -43.8008
   XY=     1.2935   YY=    87.4944   ZY=     9.5756
   XZ=   -40.3048   YZ=     1.3473   ZZ=   182.0128
   Eigenvalues:    41.1579    89.2169   194.8118
     33  C    Isotropic =   117.9294   Anisotropy =   140.1650
   XX=    98.6502   YX=    -2.8882   ZX=   -26.7888
   XY=     7.4273   YY=    50.9834   ZY=    14.2936
   XZ=   -24.5597   YZ=    16.3875   ZZ=   204.1546
   Eigenvalues:    48.9585    93.4570   211.3727
     34  N    Isotropic =   272.7442   Anisotropy =    84.7895
   XX=   276.7695   YX=   -23.1458   ZX=    23.8243
   XY=   -40.8373   YY=   271.5356   ZY=   -35.5869
   XZ=    18.5849   YZ=   -26.7032   ZZ=   269.9277
   Eigenvalues:   236.7682   252.1940   329.2706
     35  C    Isotropic =   201.1192   Anisotropy =    16.9827
   XX=   209.9046   YX=     2.7854   ZX=    -6.3072
   XY=     8.9289   YY=   198.2560   ZY=     1.9332
   XZ=     0.0442   YZ=     6.5867   ZZ=   195.1972
   Eigenvalues:   190.3253   200.5914   212.4411
     36  C    Isotropic =   179.3535   Anisotropy =    40.3763
   XX=   186.2712   YX=    18.5174   ZX=    -2.0419
   XY=    11.9438   YY=   193.1782   ZY=    -5.3681
   XZ=    11.0181   YZ=   -18.1655   ZZ=   158.6110
   Eigenvalues:   152.4124   179.3770   206.2710
     37  C    Isotropic =   183.6879   Anisotropy =    41.4754
   XX=   164.0195   YX=     7.6797   ZX=    -8.9230
   XY=     5.7748   YY=   193.1687   ZY=    19.9522
   XZ=    -2.0848   YZ=    15.6461   ZZ=   193.8755
   Eigenvalues:   159.4123   180.3133   211.3382
     38  C    Isotropic =   211.1730   Anisotropy =    22.8486
   XX=   204.9271   YX=    -5.4616   ZX=   -11.5756
   XY=     2.0494   YY=   206.4828   ZY=     1.1729
   XZ=    -7.1839   YZ=     1.3161   ZZ=   222.1092
   Eigenvalues:   200.6031   206.5105   226.4054
     39  C    Isotropic =   213.0830   Anisotropy =    19.2055
   XX=   209.0817   YX=     3.4104   ZX=    -3.0238
   XY=    -1.6487   YY=   221.3483   ZY=     8.8541
   XZ=    -1.6922   YZ=     8.7349   ZZ=   208.8189
   Eigenvalues:   203.2195   210.1428   225.8866
     40  C    Isotropic =   211.7355   Anisotropy =    10.4353
   XX=   211.1677   YX=     1.0150   ZX=    -2.8116
   XY=     2.0176   YY=   214.2479   ZY=    -5.0056
   XZ=    -2.3451   YZ=    -5.4766   ZZ=   209.7909
   Eigenvalues:   205.9493   210.5649   218.6924
     41  N    Isotropic =   235.4134   Anisotropy =    25.5995
   XX=   241.1397   YX=   -25.4317   ZX=    12.4570
   XY=    -0.1183   YY=   236.3495   ZY=    10.1826
   XZ=    12.5359   YZ=     9.6510   ZZ=   228.7509
   Eigenvalues:   211.4436   242.3167   252.4797
     42  C    Isotropic =   193.8482   Anisotropy =    49.6477
   XX=   203.4815   YX=    21.5512   ZX=    -4.5970
   XY=    26.8949   YY=   197.2842   ZY=    -8.6866
   XZ=    -7.0816   YZ=    -8.1187   ZZ=   180.7789
   Eigenvalues:   174.5545   180.0435   226.9467
     43  C    Isotropic =   219.3940   Anisotropy =     9.2763
   XX=   210.0390   YX=     5.2063   ZX=     1.6354
   XY=     2.9509   YY=   223.1950   ZY=    -0.2893
   XZ=     3.6020   YZ=    -2.0813   ZZ=   224.9480
   Eigenvalues:   208.3887   224.2151   225.5782
     44  C    Isotropic =   214.9764   Anisotropy =    21.6903
   XX=   212.2900   YX=     8.5919   ZX=    -3.0813
   XY=    11.2412   YY=   222.7813   ZY=    -0.9713
   XZ=    -5.5894   YZ=    -2.2623   ZZ=   209.8579
   Eigenvalues:   204.5699   210.9226   229.4366
     45  C    Isotropic =   207.2810   Anisotropy =    33.9299
   XX=   187.2337   YX=    14.5254   ZX=    -6.5498
   XY=     9.5816   YY=   211.7580   ZY=    10.0383
   XZ=    -0.9561   YZ=    11.9849   ZZ=   222.8514
   Eigenvalues:   180.8361   211.1061   229.9009
     46  C    Isotropic =   190.8389   Anisotropy =    50.9013
   XX=   165.2633   YX=    11.8013   ZX=     5.6010
   XY=     1.2586   YY=   193.0725   ZY=   -21.2583
   XZ=     3.9433   YZ=   -15.3605   ZZ=   214.1810
   Eigenvalues:   162.0831   185.6606   224.7732
     47  C    Isotropic =   211.7841   Anisotropy =    26.4395
   XX=   227.3733   YX=     1.1096   ZX=    -7.3722
   XY=     1.5642   YY=   205.9522   ZY=    -7.1910
   XZ=    -5.7901   YZ=    -7.6888   ZZ=   202.0270
   Eigenvalues:   195.6530   210.2889   229.4105
     48  C    Isotropic =   207.2632   Anisotropy =    17.3462
   XX=   211.1348   YX=    -5.4158   ZX=    -2.7590
   XY=    -8.3428   YY=   208.6234   ZY=     4.6675
   XZ=    -5.7217   YZ=     3.0565   ZZ=   202.0315
   Eigenvalues:   200.0568   202.9055   218.8273
     49  C    Isotropic =    98.2745   Anisotropy =    97.0824
   XX=    90.5985   YX=    78.7945   ZX=    35.8084
   XY=    92.1545   YY=    60.7204   ZY=   -48.1572
   XZ=    23.9775   YZ=   -28.6691   ZZ=   143.5047
   Eigenvalues:   -25.1405   156.9680   162.9961
     50  O    Isotropic =  -132.8935   Anisotropy =   879.2834
   XX=    92.9795   YX=   182.5617   ZX=   340.2377
   XY=   187.8243   YY=  -254.8418   ZY=   291.3777
   XZ=   341.0998   YZ=   308.3364   ZZ=  -236.8181
   Eigenvalues:  -570.5493  -281.4266   453.2954
     51  O    Isotropic =   285.8851   Anisotropy =   142.4133
   XX=   279.3098   YX=    37.6067   ZX=    98.5932
   XY=   -42.3039   YY=   372.1587   ZY=    42.0606
   XZ=   135.5700   YZ=   -73.5863   ZZ=   206.1867
   Eigenvalues:   119.5836   357.2444   380.8273
     52  C    Isotropic =   197.4897   Anisotropy =    57.0534
   XX=   202.1441   YX=   -15.9467   ZX=   -22.3963
   XY=   -15.4330   YY=   187.5617   ZY=    16.5908
   XZ=   -22.6444   YZ=    15.6472   ZZ=   202.7632
   Eigenvalues:   177.0064   179.9373   235.5253
     53  C    Isotropic =   211.0758   Anisotropy =    42.1369
   XX=   219.8465   YX=    16.3120   ZX=    11.7209
   XY=    16.7144   YY=   208.1007   ZY=    10.7829
   XZ=    11.4577   YZ=    12.1437   ZZ=   205.2801
   Eigenvalues:   194.5303   199.5300   239.1670
     54  O    Isotropic =    74.1324   Anisotropy =   408.8789
   XX=   227.9689   YX=  -196.2410   ZX=   -45.7932
   XY=  -173.2508   YY=    43.8775   ZY=    25.9408
   XZ=   -25.6824   YZ=    17.0422   ZZ=   -49.4493
   Eigenvalues:   -70.5000   -53.8212   346.7183
     55  H    Isotropic =    25.5104   Anisotropy =    13.0995
   XX=    28.6692   YX=     6.5853   ZX=    -1.3424
   XY=     6.3232   YY=    26.2908   ZY=    -1.4968
   XZ=    -0.9551   YZ=    -0.7263   ZZ=    21.5713
   Eigenvalues:    20.8881    21.3997    34.2434
     56  H    Isotropic =    26.0611   Anisotropy =     7.0041
   XX=    26.0489   YX=     1.0915   ZX=    -3.6041
   XY=     1.4744   YY=    25.6438   ZY=     1.8740
   XZ=    -5.0328   YZ=     2.6968   ZZ=    26.4906
   Eigenvalues:    20.6695    26.7833    30.7305
     57  H    Isotropic =    26.6788   Anisotropy =     7.7308
   XX=    26.9456   YX=     4.7659   ZX=    -1.5291
   XY=     4.6924   YY=    27.1722   ZY=     2.7960
   XZ=    -2.5994   YZ=     2.5019   ZZ=    25.9187
   Eigenvalues:    20.3380    27.8659    31.8327
     58  H    Isotropic =    31.4244   Anisotropy =     8.6936
   XX=    28.9884   YX=     2.3366   ZX=    -0.1325
   XY=     1.8297   YY=    33.1614   ZY=    -5.2910
   XZ=    -1.0893   YZ=    -2.8471   ZZ=    32.1233
   Eigenvalues:    27.6337    29.4193    37.2201
     59  H    Isotropic =    32.1490   Anisotropy =    13.7793
   XX=    35.7697   YX=    -4.9457   ZX=    -3.1836
   XY=    -6.2440   YY=    28.8627   ZY=     4.9091
   XZ=    -1.9709   YZ=     5.0124   ZZ=    31.8146
   Eigenvalues:    24.1982    30.9136    41.3352
     60  H    Isotropic =    32.8556   Anisotropy =     9.0916
   XX=    31.8604   YX=     2.7479   ZX=     1.8116
   XY=    -0.8864   YY=    38.4838   ZY=    -2.2134
   XZ=     2.9703   YZ=    -1.9193   ZZ=    28.2228
   Eigenvalues:    26.6056    33.0446    38.9167
     61  H    Isotropic =    32.3205   Anisotropy =    15.4671
   XX=    42.3328   YX=    -1.8319   ZX=     1.0636
   XY=    -2.1518   YY=    27.3101   ZY=     1.5042
   XZ=     0.8861   YZ=     1.4978   ZZ=    27.3185
   Eigenvalues:    25.5484    28.7812    42.6319
     62  H    Isotropic =    32.5364   Anisotropy =    13.8809
   XX=    28.4959   YX=    -2.3745   ZX=     3.7048
   XY=    -3.5567   YY=    33.9478   ZY=    -5.8319
   XZ=     3.8194   YZ=    -5.1273   ZZ=    35.1655
   Eigenvalues:    26.7419    29.0770    41.7903
     63  H    Isotropic =    31.7637   Anisotropy =    14.3986
   XX=    27.9720   YX=     1.7577   ZX=    -1.6926
   XY=     1.7256   YY=    26.7541   ZY=    -2.0011
   XZ=    -2.4335   YZ=    -2.7175   ZZ=    40.5648
   Eigenvalues:    25.4757    28.4525    41.3628
     64  H    Isotropic =    31.7915   Anisotropy =    14.4833
   XX=    32.3964   YX=    -5.0083   ZX=    -1.7184
   XY=    -5.7081   YY=    32.7529   ZY=     6.8239
   XZ=    -1.9620   YZ=     6.4763   ZZ=    30.2253
   Eigenvalues:    24.0880    29.8395    41.4471
     65  H    Isotropic =    32.6028   Anisotropy =    18.1241
   XX=    29.7741   YX=     2.5848   ZX=     4.4437
   XY=     2.4919   YY=    30.8818   ZY=     7.9942
   XZ=     4.7216   YZ=     8.5451   ZZ=    37.1524
   Eigenvalues:    25.0892    28.0336    44.6855
     66  H    Isotropic =    32.5206   Anisotropy =    10.2770
   XX=    28.1077   YX=     2.3491   ZX=     0.0418
   XY=     2.2495   YY=    38.2596   ZY=    -2.1375
   XZ=    -0.1025   YZ=    -2.4359   ZZ=    31.1944
   Eigenvalues:    27.5471    30.6428    39.3719
     67  H    Isotropic =    32.6088   Anisotropy =    13.6010
   XX=    28.5710   YX=    -2.2934   ZX=     4.4430
   XY=    -2.6132   YY=    30.9510   ZY=    -3.5862
   XZ=     4.4843   YZ=    -3.4618   ZZ=    38.3044
   Eigenvalues:    26.5114    29.6388    41.6761
     68  H    Isotropic =    32.4517   Anisotropy =    15.0323
   XX=    40.7054   YX=     3.7836   ZX=     2.6414
   XY=     3.9700   YY=    27.8600   ZY=     2.9092
   XZ=     2.0867   YZ=     2.7602   ZZ=    28.7896
   Eigenvalues:    25.2869    29.5948    42.4732
     69  H    Isotropic =    32.5208   Anisotropy =    17.1487
   XX=    43.8580   YX=    -0.8334   ZX=     0.6148
   XY=     1.9319   YY=    30.8972   ZY=     2.1392
   XZ=     1.7628   YZ=    -0.0368   ZZ=    22.8072
   Eigenvalues:    22.6147    30.9944    43.9533
     70  H    Isotropic =    32.9380   Anisotropy =     8.7858
   XX=    32.7636   YX=    -2.8774   ZX=    -0.6294
   XY=    -1.5228   YY=    29.4991   ZY=    -4.2110
   XZ=     0.2817   YZ=    -4.6375   ZZ=    36.5512
   Eigenvalues:    26.6672    33.3516    38.7952
     71  H    Isotropic =    31.9440   Anisotropy =    16.8446
   XX=    38.7131   YX=    -7.2797   ZX=    -0.1890
   XY=    -7.3145   YY=    31.1799   ZY=     2.7875
   XZ=     1.8429   YZ=     1.8896   ZZ=    25.9391
   Eigenvalues:    23.8693    28.7890    43.1738
     72  H    Isotropic =    31.8495   Anisotropy =     8.0732
   XX=    30.7801   YX=     1.0257   ZX=    -0.7292
   XY=     1.9817   YY=    35.9643   ZY=    -2.4217
   XZ=    -0.0901   YZ=    -2.9382   ZZ=    28.8043
   Eigenvalues:    27.9094    30.4075    37.2317
     73  H    Isotropic =    31.3999   Anisotropy =     9.0180
   XX=    27.3766   YX=    -1.4668   ZX=    -0.1208
   XY=    -1.2323   YY=    37.2304   ZY=     0.5898
   XZ=    -0.9107   YZ=    -0.7429   ZZ=    29.5927
   Eigenvalues:    27.0866    29.7012    37.4119
     74  H    Isotropic =    32.1884   Anisotropy =    15.0423
   XX=    39.3765   YX=     6.2443   ZX=    -0.7490
   XY=     6.3691   YY=    27.7698   ZY=     0.4806
   XZ=    -1.5657   YZ=    -0.0088   ZZ=    29.4188
   Eigenvalues:    24.8988    29.4497    42.2166
     75  H    Isotropic =    31.1482   Anisotropy =    12.6230
   XX=    35.0032   YX=    -1.3683   ZX=    -5.7907
   XY=     0.0968   YY=    25.7361   ZY=     1.1710
   XZ=    -5.2098   YZ=     0.8071   ZZ=    32.7054
   Eigenvalues:    25.5952    28.2859    39.5636
     76  H    Isotropic =    30.6741   Anisotropy =     8.1179
   XX=    35.2454   YX=    -2.2134   ZX=     1.3534
   XY=    -2.2001   YY=    26.8640   ZY=    -2.3595
   XZ=     0.1216   YZ=    -2.4750   ZZ=    29.9129
   Eigenvalues:    25.2688    30.6675    36.0860
     77  H    Isotropic =    30.5704   Anisotropy =    11.5670
   XX=    27.3129   YX=     3.0508   ZX=    -1.5028
   XY=     3.5792   YY=    34.2056   ZY=    -4.8072
   XZ=    -1.2971   YZ=    -4.2093   ZZ=    30.1927
   Eigenvalues:    25.9026    27.5269    38.2817
     78  H    Isotropic =    30.5480   Anisotropy =    11.8217
   XX=    25.7897   YX=    -0.1797   ZX=     0.1110
   XY=    -0.1593   YY=    27.6248   ZY=     1.1326
   XZ=    -0.5786   YZ=     1.7660   ZZ=    38.2296
   Eigenvalues:    25.7733    27.4416    38.4292
     79  H    Isotropic =    31.9137   Anisotropy =    12.2536
   XX=    30.2716   YX=    -4.5388   ZX=    -1.8871
   XY=    -5.7356   YY=    36.5085   ZY=     2.8944
   XZ=    -0.5258   YZ=     2.0727   ZZ=    28.9610
   Eigenvalues:    27.3520    28.3063    40.0828
     80  H    Isotropic =    30.7784   Anisotropy =    13.8426
   XX=    27.3512   YX=     2.4303   ZX=     1.4347
   XY=     1.8894   YY=    27.5195   ZY=     5.3114
   XZ=     1.7037   YZ=     4.8211   ZZ=    37.4645
   Eigenvalues:    24.5970    27.7314    40.0068
     81  H    Isotropic =    30.9095   Anisotropy =    10.8213
   XX=    31.3928   YX=     2.9117   ZX=    -6.4761
   XY=     1.8825   YY=    29.3394   ZY=     1.5462
   XZ=    -6.1890   YZ=     0.6444   ZZ=    31.9962
   Eigenvalues:    24.1475    30.4572    38.1237
     82  H    Isotropic =    30.1501   Anisotropy =     8.6096
   XX=    27.8982   YX=     1.8606   ZX=     1.3715
   XY=     2.6674   YY=    27.4607   ZY=    -0.8264
   XZ=     3.6798   YZ=    -0.5308   ZZ=    35.0915
   Eigenvalues:    24.9102    29.6504    35.8898
     83  H    Isotropic =    29.8781   Anisotropy =    12.5496
   XX=    28.0423   YX=    -0.1300   ZX=    -0.1127
   XY=     1.9079   YY=    38.0201   ZY=    -1.3963
   XZ=    -1.7177   YZ=    -1.3718   ZZ=    23.5718
   Eigenvalues:    23.2944    28.0954    38.2445
     84  H    Isotropic =    26.8683   Anisotropy =    15.8515
   XX=    34.2012   YX=    -4.6295   ZX=     0.2437
   XY=    -5.7255   YY=    28.3730   ZY=    -0.2512
   XZ=     3.1151   YZ=    -1.9560   ZZ=    18.0306
   Eigenvalues:    17.8216    25.3473    37.4359
     85  H    Isotropic =    25.6834   Anisotropy =     6.7709
   XX=    29.0862   YX=     1.9957   ZX=     1.3456
   XY=     1.4172   YY=    27.2367   ZY=    -0.6915
   XZ=     1.5273   YZ=    -0.5025   ZZ=    20.7274
   Eigenvalues:    20.3724    26.4804    30.1974
     86  H    Isotropic =    26.4867   Anisotropy =     7.4417
   XX=    27.9438   YX=    -0.4302   ZX=     2.0760
   XY=    -0.4063   YY=    30.7573   ZY=    -2.1899
   XZ=     1.5499   YZ=    -2.3760   ZZ=    20.7589
   Eigenvalues:    19.9076    28.1047    31.4478
     87  H    Isotropic =    32.1948   Anisotropy =    11.7254
   XX=    39.4432   YX=    -1.4331   ZX=     0.7560
   XY=    -2.6553   YY=    31.2695   ZY=    -0.0099
   XZ=     1.0024   YZ=    -2.1021   ZZ=    25.8717
   Eigenvalues:    25.6543    30.9184    40.0117
     88  H    Isotropic =    33.4242   Anisotropy =     8.3264
   XX=    30.2457   YX=    -3.4200   ZX=    -3.1395
   XY=    -3.6513   YY=    37.3130   ZY=     1.9508
   XZ=     0.2111   YZ=    -0.7841   ZZ=    32.7139
   Eigenvalues:    28.4714    32.8261    38.9751
     89  H    Isotropic =    32.2619   Anisotropy =    13.3493
   XX=    31.1321   YX=     4.6861   ZX=     4.0087
   XY=     3.7988   YY=    29.1160   ZY=     3.1397
   XZ=     5.8729   YZ=     2.1561   ZZ=    36.5375
   Eigenvalues:    25.6333    29.9909    41.1614
     90  H    Isotropic =    32.4305   Anisotropy =    14.7635
   XX=    27.2275   YX=     1.1621   ZX=     0.3754
   XY=     1.1013   YY=    27.9312   ZY=    -0.9580
   XZ=     0.8819   YZ=    -1.6856   ZZ=    42.1326
   Eigenvalues:    26.2879    28.7306    42.2728
     91  H    Isotropic =    33.3624   Anisotropy =    13.1828
   XX=    39.8885   YX=    -3.2559   ZX=    -3.7260
   XY=    -4.1415   YY=    30.3765   ZY=     2.0001
   XZ=    -3.0409   YZ=    -0.1574   ZZ=    29.8224
   Eigenvalues:    28.7097    29.2266    42.1510
     92  H    Isotropic =    30.9083   Anisotropy =    13.0567
   XX=    27.4193   YX=     3.8432   ZX=     1.6305
   XY=     2.4247   YY=    34.5968   ZY=     5.8757
   XZ=     1.7517   YZ=     5.3384   ZZ=    30.7088
   Eigenvalues:    26.1044    27.0078    39.6128
     93  H    Isotropic =    32.1595   Anisotropy =    15.9726
   XX=    42.3533   YX=    -1.3659   ZX=     2.3701
   XY=    -0.3176   YY=    28.7974   ZY=    -1.0123
   XZ=     2.8003   YZ=    -1.1849   ZZ=    25.3280
   Eigenvalues:    24.7139    28.9568    42.8079
     94  H    Isotropic =    31.1425   Anisotropy =    13.8233
   XX=    30.8857   YX=    -5.4148   ZX=     0.3010
   XY=    -5.8063   YY=    36.9576   ZY=    -0.6415
   XZ=     0.8543   YZ=    -0.8070   ZZ=    25.5840
   Eigenvalues:    25.5193    27.5502    40.3580
     95  H    Isotropic =    32.4169   Anisotropy =    16.0369
   XX=    33.4761   YX=     7.6966   ZX=    -2.3549
   XY=     7.1799   YY=    35.5096   ZY=    -3.5364
   XZ=    -1.6705   YZ=    -3.6984   ZZ=    28.2651
   Eigenvalues:    26.2351    27.9075    43.1082
     96  H    Isotropic =    32.2459   Anisotropy =    14.7502
   XX=    27.9436   YX=     0.7366   ZX=     2.6076
   XY=     0.5807   YY=    31.7753   ZY=    -6.8246
   XZ=     2.9402   YZ=    -7.0572   ZZ=    37.0186
   Eigenvalues:    25.1993    29.4589    42.0794
     97  H    Isotropic =    32.9372   Anisotropy =    12.8063
   XX=    38.8628   YX=    -0.1475   ZX=    -5.6675
   XY=    -0.2302   YY=    29.8839   ZY=     1.0959
   XZ=    -5.2027   YZ=     0.2705   ZZ=    30.0649
   Eigenvalues:    27.3576    29.9794    41.4747
     98  H    Isotropic =    32.6665   Anisotropy =    10.5200
   XX=    27.3162   YX=    -0.3299   ZX=    -1.5288
   XY=     0.9931   YY=    33.0399   ZY=    -4.7761
   XZ=    -1.9085   YZ=    -2.0367   ZZ=    37.6433
   Eigenvalues:    27.0281    31.2915    39.6798
     99  H    Isotropic =    31.3247   Anisotropy =    12.6027
   XX=    38.1347   YX=    -2.9506   ZX=    -3.2471
   XY=    -1.8729   YY=    26.1937   ZY=     2.1001
   XZ=    -2.6322   YZ=     2.5503   ZZ=    29.6456
   Eigenvalues:    24.9597    29.2878    39.7265
    100  H    Isotropic =    30.9531   Anisotropy =    14.1431
   XX=    26.5498   YX=     0.1135   ZX=     0.0159
   XY=     0.4856   YY=    29.2004   ZY=     5.0222
   XZ=    -1.0147   YZ=     7.0610   ZZ=    37.1091
   Eigenvalues:    25.6524    26.8250    40.3818
    101  H    Isotropic =    31.6315   Anisotropy =    12.2709
   XX=    36.7559   YX=    -1.9093   ZX=     4.2084
   XY=    -2.4867   YY=    28.6087   ZY=    -1.2997
   XZ=     5.8146   YZ=    -0.4058   ZZ=    29.5298
   Eigenvalues:    26.9176    28.1647    39.8121
    102  H    Isotropic =    29.9160   Anisotropy =    11.2619
   XX=    31.9059   YX=    -3.5201   ZX=    -1.3984
   XY=    -4.1397   YY=    34.5615   ZY=     0.7841
   XZ=    -0.1141   YZ=     1.5526   ZZ=    23.2807
   Eigenvalues:    23.1434    29.1807    37.4239
    103  H    Isotropic =    31.8683   Anisotropy =    14.4541
   XX=    31.5920   YX=    -1.4066   ZX=     4.7356
   XY=    -1.7630   YY=    27.6785   ZY=    -4.6431
   XZ=     5.5288   YZ=    -5.3954   ZZ=    36.3345
   Eigenvalues:    25.2635    28.8371    41.5044
    104  H    Isotropic =    31.4584   Anisotropy =    13.0447
   XX=    35.3428   YX=     2.1340   ZX=     6.9636
   XY=     0.8884   YY=    28.8858   ZY=     2.1320
   XZ=     6.0596   YZ=     0.9674   ZZ=    30.1467
   Eigenvalues:    25.6687    28.5516    40.1549
    105  H    Isotropic =    30.6011   Anisotropy =    11.7892
   XX=    37.6747   YX=     0.9514   ZX=    -2.6012
   XY=     1.4784   YY=    27.9897   ZY=     0.0677
   XZ=    -3.0528   YZ=     0.0716   ZZ=    26.1390
   Eigenvalues:    25.4356    27.9072    38.4606
    106  H    Isotropic =    30.6461   Anisotropy =    12.4986
   XX=    30.2938   YX=    -5.5280   ZX=    -0.4250
   XY=    -5.3016   YY=    35.6015   ZY=    -0.8830
   XZ=    -0.7897   YZ=    -0.0797   ZZ=    26.0428
   Eigenvalues:    25.5941    27.3656    38.9784
    107  H    Isotropic =    30.5671   Anisotropy =     7.2314
   XX=    30.3705   YX=    -1.4817   ZX=     0.7571
   XY=    -2.2968   YY=    27.2585   ZY=     2.7551
   XZ=     0.4294   YZ=     3.7713   ZZ=    34.0722
   Eigenvalues:    25.1945    31.1187    35.3880
    108  H    Isotropic =    31.5245   Anisotropy =    12.1035
   XX=    37.9472   YX=     0.4476   ZX=     4.5794
   XY=    -0.1931   YY=    31.2808   ZY=    -0.4013
   XZ=     5.1064   YZ=    -0.5751   ZZ=    25.3455
   Eigenvalues:    23.6661    31.3139    39.5935
    109  H    Isotropic =    30.7978   Anisotropy =    15.1686
   XX=    32.3286   YX=     6.9321   ZX=    -1.5128
   XY=     6.3026   YY=    34.2041   ZY=    -4.0387
   XZ=    -1.0349   YZ=    -3.7594   ZZ=    25.8606
   Eigenvalues:    23.9866    27.4965    40.9102
    110  H    Isotropic =    31.9978   Anisotropy =    11.5564
   XX=    29.1955   YX=     2.7068   ZX=     0.0546
   XY=     2.2549   YY=    33.0163   ZY=     5.7671
   XZ=     1.7837   YZ=     5.7361   ZZ=    33.7816
   Eigenvalues:    26.8810    29.4103    39.7021
 End of Minotr F.D. properties file   721 does not exist.
 End of Minotr F.D. properties file   722 does not exist.
 End of Minotr F.D. properties file   788 does not exist.
 Hyperfine terms turned off by default for NAtoms > 100.

 **********************************************************************

            Population analysis using the SCF Density.

 **********************************************************************

 Orbital symmetries:
       Occupied  (A) (A) (A) (A) (A) (A) (A) (A) (A) (A) (A) (A)
                 (A) (A) (A) (A) (A) (A) (A) (A) (A) (A) (A) (A)
                 (A) (A) (A) (A) (A) (A) (A) (A) (A) (A) (A) (A)
                 (A) (A) (A) (A) (A) (A) (A) (A) (A) (A) (A) (A)
                 (A) (A) (A) (A) (A) (A) (A) (A) (A) (A) (A) (A)
                 (A) (A) (A) (A) (A) (A) (A) (A) (A) (A) (A) (A)
                 (A) (A) (A) (A) (A) (A) (A) (A) (A) (A) (A) (A)
                 (A) (A) (A) (A) (A) (A) (A) (A) (A) (A) (A) (A)
                 (A) (A) (A) (A) (A) (A) (A) (A) (A) (A) (A) (A)
                 (A) (A) (A) (A) (A) (A) (A) (A) (A) (A) (A) (A)
                 (A) (A) (A) (A) (A) (A) (A) (A) (A) (A) (A) (A)
                 (A) (A) (A) (A) (A) (A) (A) (A) (A) (A) (A) (A)
                 (A) (A) (A) (A) (A) (A) (A) (A) (A) (A) (A) (A)
                 (A) (A) (A) (A) (A) (A) (A) (A) (A) (A) (A) (A)
                 (A) (A) (A) (A) (A) (A) (A) (A) (A) (A) (A) (A)
                 (A) (A) (A) (A) (A) (A) (A) (A) (A) (A) (A) (A)
                 (A) (A) (A) (A) (A)
       Virtual   (A) (A) (A) (A) (A) (A) (A) (A) (A) (A) (A) (A)
                 (A) (A) (A) (A) (A) (A) (A) (A) (A) (A) (A) (A)
                 (A) (A) (A) (A) (A) (A) (A) (A) (A) (A) (A) (A)
                 (A) (A) (A) (A) (A) (A) (A) (A) (A) (A) (A) (A)
                 (A) (A) (A) (A) (A) (A) (A) (A) (A) (A) (A) (A)
                 (A) (A) (A) (A) (A) (A) (A) (A) (A) (A) (A) (A)
                 (A) (A) (A) (A) (A) (A) (A) (A) (A) (A) (A) (A)
                 (A) (A) (A) (A) (A) (A) (A) (A) (A) (A) (A) (A)
                 (A) (A) (A) (A) (A) (A) (A) (A) (A) (A) (A) (A)
                 (A) (A) (A) (A) (A) (A) (A) (A) (A) (A) (A) (A)
                 (A) (A) (A) (A) (A) (A) (A) (A) (A)
 The electronic state is 1-A.
 Alpha  occ. eigenvalues --  -20.30952 -20.28398 -20.24930 -20.22415 -19.91951
 Alpha  occ. eigenvalues --  -15.47973 -15.33839 -15.33254 -15.30994 -11.16849
 Alpha  occ. eigenvalues --  -11.14628 -11.10864 -11.09740 -11.09477 -11.09152
 Alpha  occ. eigenvalues --  -11.08965 -11.08631 -11.08500 -11.08193 -11.07846
 Alpha  occ. eigenvalues --  -11.07432 -11.07156 -11.06707 -11.06683 -11.06210
 Alpha  occ. eigenvalues --  -11.06085 -11.06055 -11.05839 -11.05665 -11.05657
 Alpha  occ. eigenvalues --  -11.05516 -11.04992 -11.04712 -11.04576 -11.04504
 Alpha  occ. eigenvalues --  -11.04455 -11.04454 -11.04309 -11.04246 -11.04210
 Alpha  occ. eigenvalues --  -11.04202 -11.03946 -11.03467 -11.03008 -11.02247
 Alpha  occ. eigenvalues --  -11.02159 -11.02026 -11.01971 -11.01940 -11.01765
 Alpha  occ. eigenvalues --  -11.01747 -11.01711 -11.01647 -11.01288  -1.38172
 Alpha  occ. eigenvalues --   -1.35643  -1.29353  -1.27991  -1.25387  -1.21772
 Alpha  occ. eigenvalues --   -1.20662  -1.19235  -1.10335  -1.09975  -1.08952
 Alpha  occ. eigenvalues --   -1.07614  -1.05676  -1.05180  -1.02625  -1.01040
 Alpha  occ. eigenvalues --   -0.99288  -0.98610  -0.98560  -0.97434  -0.97116
 Alpha  occ. eigenvalues --   -0.96355  -0.95001  -0.94904  -0.94150  -0.92420
 Alpha  occ. eigenvalues --   -0.91942  -0.91620  -0.89582  -0.89236  -0.87943
 Alpha  occ. eigenvalues --   -0.86536  -0.84880  -0.82862  -0.82233  -0.81026
 Alpha  occ. eigenvalues --   -0.80238  -0.79918  -0.78094  -0.78066  -0.77620
 Alpha  occ. eigenvalues --   -0.77196  -0.74418  -0.74250  -0.72713  -0.72271
 Alpha  occ. eigenvalues --   -0.71556  -0.70211  -0.69735  -0.68181  -0.66275
 Alpha  occ. eigenvalues --   -0.65260  -0.64888  -0.64591  -0.63728  -0.62754
 Alpha  occ. eigenvalues --   -0.62495  -0.62318  -0.61552  -0.61362  -0.61190
 Alpha  occ. eigenvalues --   -0.60944  -0.60102  -0.58984  -0.58947  -0.58486
 Alpha  occ. eigenvalues --   -0.58349  -0.58133  -0.57821  -0.57634  -0.57372
 Alpha  occ. eigenvalues --   -0.57048  -0.56766  -0.56082  -0.55950  -0.55475
 Alpha  occ. eigenvalues --   -0.55083  -0.54859  -0.54608  -0.54400  -0.54308
 Alpha  occ. eigenvalues --   -0.54129  -0.54076  -0.53361  -0.52761  -0.52094
 Alpha  occ. eigenvalues --   -0.51582  -0.51203  -0.50915  -0.50781  -0.50120
 Alpha  occ. eigenvalues --   -0.50095  -0.49913  -0.49279  -0.48971  -0.48621
 Alpha  occ. eigenvalues --   -0.48388  -0.48277  -0.48027  -0.47447  -0.47054
 Alpha  occ. eigenvalues --   -0.46708  -0.46211  -0.45843  -0.45670  -0.45178
 Alpha  occ. eigenvalues --   -0.44966  -0.44740  -0.44654  -0.44417  -0.43959
 Alpha  occ. eigenvalues --   -0.43761  -0.43175  -0.43132  -0.42783  -0.42750
 Alpha  occ. eigenvalues --   -0.42364  -0.41961  -0.41657  -0.41215  -0.40881
 Alpha  occ. eigenvalues --   -0.40322  -0.39818  -0.38803  -0.38587  -0.38069
 Alpha  occ. eigenvalues --   -0.37701  -0.37162  -0.36718  -0.35414  -0.34498
 Alpha  occ. eigenvalues --   -0.33641  -0.33028  -0.32381  -0.31096  -0.30406
 Alpha  occ. eigenvalues --   -0.27516  -0.26954  -0.26556  -0.21316  -0.20305
 Alpha  occ. eigenvalues --   -0.15896  -0.15373
 Alpha virt. eigenvalues --    0.26822   0.26883   0.27621   0.28799   0.30103
 Alpha virt. eigenvalues --    0.32951   0.45863   0.47893   0.48291   0.48966
 Alpha virt. eigenvalues --    0.49467   0.49894   0.50148   0.51601   0.52014
 Alpha virt. eigenvalues --    0.53747   0.55142   0.55431   0.55598   0.55813
 Alpha virt. eigenvalues --    0.56788   0.57448   0.57600   0.58773   0.58992
 Alpha virt. eigenvalues --    0.59336   0.59534   0.60197   0.60308   0.60852
 Alpha virt. eigenvalues --    0.61257   0.61805   0.61907   0.62702   0.62837
 Alpha virt. eigenvalues --    0.63069   0.63593   0.63735   0.64036   0.64528
 Alpha virt. eigenvalues --    0.64659   0.64980   0.65234   0.65416   0.65655
 Alpha virt. eigenvalues --    0.66326   0.66598   0.66618   0.66775   0.67104
 Alpha virt. eigenvalues --    0.67285   0.67621   0.67785   0.68279   0.68410
 Alpha virt. eigenvalues --    0.68754   0.69261   0.69391   0.69487   0.69953
 Alpha virt. eigenvalues --    0.70165   0.70313   0.70522   0.70768   0.70890
 Alpha virt. eigenvalues --    0.71143   0.71463   0.71562   0.72205   0.72442
 Alpha virt. eigenvalues --    0.72974   0.73273   0.73446   0.73497   0.73641
 Alpha virt. eigenvalues --    0.74044   0.74246   0.74488   0.74593   0.74686
 Alpha virt. eigenvalues --    0.74864   0.75522   0.75579   0.76071   0.76242
 Alpha virt. eigenvalues --    0.76483   0.76607   0.76949   0.77364   0.77574
 Alpha virt. eigenvalues --    0.77730   0.78235   0.78658   0.78917   0.79113
 Alpha virt. eigenvalues --    0.79296   0.79700   0.80214   0.80332   0.80777
 Alpha virt. eigenvalues --    0.80935   0.81083   0.81375   0.81742   0.82110
 Alpha virt. eigenvalues --    0.82143   0.83709   0.84107   0.84387   0.84531
 Alpha virt. eigenvalues --    0.85835   0.85992   0.86068   0.87160   0.87417
 Alpha virt. eigenvalues --    0.88385   0.88983   0.90684   0.91627   0.93864
 Alpha virt. eigenvalues --    0.94882   0.95506   0.97738   1.01122   1.03448
 Alpha virt. eigenvalues --    1.10539   1.11257   1.15750   1.16179
          Condensed to atoms (all electrons):
 Mulliken charges:
               1
     1  C   -0.076228
     2  C    0.000418
     3  C   -0.062209
     4  C   -0.089491
     5  C    0.088472
     6  C   -0.014155
     7  N   -0.286992
     8  C    0.018139
     9  C    0.127998
    10  C    0.040128
    11  C   -0.114902
    12  C   -0.105557
    13  C    0.028028
    14  N   -0.291122
    15  C   -0.015366
    16  C   -0.108272
    17  C   -0.102092
    18  C   -0.104265
    19  C   -0.020020
    20  C   -0.110564
    21  C   -0.066704
    22  C    0.319812
    23  O   -0.277566
    24  O   -0.255358
    25  C   -0.055812
    26  C   -0.079325
    27  C   -0.109990
    28  C    0.000952
    29  C   -0.079170
    30  C   -0.061822
    31  C   -0.090426
    32  C    0.095132
    33  C   -0.013035
    34  N   -0.280841
    35  C    0.015067
    36  C    0.134668
    37  C    0.039645
    38  C   -0.116064
    39  C   -0.105529
    40  C    0.040122
    41  N   -0.081599
    42  C   -0.003370
    43  C   -0.097182
    44  C   -0.099120
    45  C   -0.097864
    46  C   -0.004965
    47  C   -0.098685
    48  C   -0.058595
    49  C    0.326973
    50  O   -0.275371
    51  O   -0.255864
    52  C   -0.054009
    53  C   -0.077389
    54  O   -0.461406
    55  H    0.063728
    56  H    0.057539
    57  H    0.058889
    58  H    0.057179
    59  H    0.051192
    60  H    0.054929
    61  H    0.048802
    62  H    0.050981
    63  H    0.054465
    64  H    0.061290
    65  H    0.054636
    66  H    0.050604
    67  H    0.050615
    68  H    0.051905
    69  H    0.056571
    70  H    0.064060
    71  H    0.053287
    72  H    0.053640
    73  H    0.067393
    74  H    0.051898
    75  H    0.065482
    76  H    0.073994
    77  H    0.072834
    78  H    0.077709
    79  H    0.055883
    80  H    0.071905
    81  H    0.076599
    82  H    0.059800
    83  H    0.058514
    84  H    0.056383
    85  H    0.055732
    86  H    0.059858
    87  H    0.055116
    88  H    0.055024
    89  H    0.048890
    90  H    0.052546
    91  H    0.048206
    92  H    0.084352
    93  H    0.056621
    94  H    0.080475
    95  H    0.058410
    96  H    0.057977
    97  H    0.047282
    98  H    0.067683
    99  H    0.095097
   100  H    0.089434
   101  H    0.057818
   102  H    0.102105
   103  H    0.044520
   104  H    0.061726
   105  H    0.067220
   106  H    0.074082
   107  H    0.078189
   108  H    0.072122
   109  H    0.075138
   110  H    0.054414
 Sum of Mulliken charges =  -0.00000
 Mulliken charges with hydrogens summed into heavy atoms:
               1
     1  C   -0.012500
     2  C    0.000418
     3  C   -0.004670
     4  C   -0.030602
     5  C    0.088472
     6  C   -0.014155
     7  N   -0.286992
     8  C    0.018139
     9  C    0.127998
    10  C    0.097306
    11  C   -0.008781
    12  C   -0.005774
    13  C    0.028028
    14  N   -0.291122
    15  C    0.100389
    16  C   -0.003032
    17  C    0.000429
    18  C    0.016365
    19  C    0.086907
    20  C    0.008727
    21  C   -0.001222
    22  C    0.319812
    23  O   -0.277566
    24  O   -0.255358
    25  C    0.168725
    26  C    0.125062
    27  C    0.008324
    28  C    0.000952
    29  C   -0.022787
    30  C   -0.006090
    31  C   -0.030568
    32  C    0.095132
    33  C   -0.013035
    34  N   -0.280841
    35  C    0.015067
    36  C    0.134668
    37  C    0.094761
    38  C   -0.012150
    39  C   -0.004776
    40  C    0.040122
    41  N   -0.081599
    42  C    0.137602
    43  C    0.041703
    44  C    0.006140
    45  C    0.064915
    46  C    0.142288
    47  C    0.047940
    48  C    0.003131
    49  C    0.326973
    50  O   -0.275371
    51  O   -0.255864
    52  C    0.165483
    53  C    0.124284
    54  O   -0.461406
 Electronic spatial extent (au):  <R**2>=          38105.4202
 Charge=             -0.0000 electrons
 Dipole moment (field-independent basis, Debye):
    X=             -5.2822    Y=              1.1698    Z=              2.4161  Tot=              5.9252
 Quadrupole moment (field-independent basis, Debye-Ang):
   XX=           -298.8340   YY=           -303.8720   ZZ=           -291.9953
   XY=              6.7648   XZ=             11.0151   YZ=              2.4443
 Traceless Quadrupole moment (field-independent basis, Debye-Ang):
   XX=             -0.6002   YY=             -5.6382   ZZ=              6.2385
   XY=              6.7648   XZ=             11.0151   YZ=              2.4443
 Octapole moment (field-independent basis, Debye-Ang**2):
  XXX=           -125.1468  YYY=             -8.2297  ZZZ=             46.7359  XYY=             11.6367
  XXY=             14.3826  XXZ=             85.8621  XZZ=            -13.6391  YZZ=            -37.1811
  YYZ=             11.7674  XYZ=             10.8214
 Hexadecapole moment (field-independent basis, Debye-Ang**3):
 XXXX=         -32830.9802 YYYY=          -8581.2002 ZZZZ=          -5232.7907 XXXY=            -91.0911
 XXXZ=            119.8677 YYYX=             28.9461 YYYZ=             15.2525 ZZZX=           -288.8585
 ZZZY=            -50.2257 XXYY=          -7047.2696 XXZZ=          -6426.1470 YYZZ=          -2292.9802
 XXYZ=            151.0233 YYXZ=            -66.4361 ZZXY=              2.3952
 N-N= 8.109474615356D+03 E-N=-2.159527904396D+04  KE= 2.279091674292D+03
 ******************************Gaussian NBO Version 3.1******************************
             N A T U R A L   A T O M I C   O R B I T A L   A N D
          N A T U R A L   B O N D   O R B I T A L   A N A L Y S I S
 ******************************Gaussian NBO Version 3.1******************************
       /RESON  / : Allow strongly delocalized NBO set
       /NLMO   / : Form Natural Localized Molecular Orbitals
       /NMR /    : Analyze NMR Sheilding Tensor 

 Analyzing the SCF density

 Job title: Pleiokomenine_C_2                                               

 Storage needed:    355564 in NPA,    438187 in NBO,   2133784 in NLMO ( 104796000 available)
 GSVD:  LWork=     -108884 too small for GESVD, short by      536270 words or      536270 for optimal perf.


 NATURAL POPULATIONS:  Natural atomic orbital occupancies 
                                                          
   NAO  Atom  No  lang   Type(AO)    Occupancy      Energy
 ----------------------------------------------------------
     1    C    1  S      Cor( 1S)     1.99993     -10.94534
     2    C    1  S      Val( 2S)     1.08036      -0.17806
     3    C    1  px     Val( 2p)     0.99448       0.08120
     4    C    1  py     Val( 2p)     0.99150       0.10677
     5    C    1  pz     Val( 2p)     0.99175       0.13158
 
     6    C    2  S      Cor( 1S)     1.99990     -10.95528
     7    C    2  S      Val( 2S)     1.07864      -0.18318
     8    C    2  px     Val( 2p)     0.96541       0.10249
     9    C    2  py     Val( 2p)     0.97828       0.11774
    10    C    2  pz     Val( 2p)     0.96333       0.14841
 
    11    C    3  S      Cor( 1S)     1.99994     -10.94774
    12    C    3  S      Val( 2S)     1.08355      -0.18217
    13    C    3  px     Val( 2p)     0.98700       0.08803
    14    C    3  py     Val( 2p)     0.99138       0.10169
    15    C    3  pz     Val( 2p)     0.97194       0.14295
 
    16    C    4  S      Cor( 1S)     1.99993     -10.94182
    17    C    4  S      Val( 2S)     1.07177      -0.17383
    18    C    4  px     Val( 2p)     1.01855       0.07532
    19    C    4  py     Val( 2p)     1.00207       0.10299
    20    C    4  pz     Val( 2p)     0.99388       0.13299
 
    21    C    5  S      Cor( 1S)     1.99985     -10.98858
    22    C    5  S      Val( 2S)     1.05957      -0.18547
    23    C    5  px     Val( 2p)     0.93522       0.09274
    24    C    5  py     Val( 2p)     0.95025       0.11965
    25    C    5  pz     Val( 2p)     0.94377       0.12680
 
    26    C    6  S      Cor( 1S)     1.99990     -10.94732
    27    C    6  S      Val( 2S)     1.08366      -0.18909
    28    C    6  px     Val( 2p)     1.00130       0.08349
    29    C    6  py     Val( 2p)     0.96363       0.11772
    30    C    6  pz     Val( 2p)     0.97664       0.13841
 
    31    N    7  S      Cor( 1S)     1.99998     -15.27073
    32    N    7  S      Val( 2S)     1.40529      -0.59669
    33    N    7  px     Val( 2p)     1.22947      -0.05118
    34    N    7  py     Val( 2p)     1.38773      -0.11387
    35    N    7  pz     Val( 2p)     1.25292      -0.05094
 
    36    C    8  S      Cor( 1S)     1.99996     -11.00964
    37    C    8  S      Val( 2S)     1.10922      -0.23504
    38    C    8  px     Val( 2p)     0.94311       0.10145
    39    C    8  py     Val( 2p)     0.96882       0.09690
    40    C    8  pz     Val( 2p)     0.95911       0.08860
 
    41    C    9  S      Cor( 1S)     1.99996     -11.05281
    42    C    9  S      Val( 2S)     1.11144      -0.25845
    43    C    9  px     Val( 2p)     0.92912       0.09322
    44    C    9  py     Val( 2p)     0.91147       0.09297
    45    C    9  pz     Val( 2p)     0.87677       0.09885
 
    46    C   10  S      Cor( 1S)     1.99993     -11.02066
    47    C   10  S      Val( 2S)     1.09698      -0.22242
    48    C   10  px     Val( 2p)     0.92729       0.10476
    49    C   10  py     Val( 2p)     0.93599       0.08968
    50    C   10  pz     Val( 2p)     0.96626       0.08588
 
    51    C   11  S      Cor( 1S)     1.99994     -10.98330
    52    C   11  S      Val( 2S)     1.10371      -0.21757
    53    C   11  px     Val( 2p)     0.99752       0.07875
    54    C   11  py     Val( 2p)     0.99426       0.08299
    55    C   11  pz     Val( 2p)     0.98971       0.08176
 
    56    C   12  S      Cor( 1S)     1.99996     -10.98121
    57    C   12  S      Val( 2S)     1.09157      -0.20353
    58    C   12  px     Val( 2p)     1.00018       0.08710
    59    C   12  py     Val( 2p)     0.98770       0.08430
    60    C   12  pz     Val( 2p)     0.99422       0.08518
 
    61    C   13  S      Cor( 1S)     1.99998     -11.00777
    62    C   13  S      Val( 2S)     1.10497      -0.23142
    63    C   13  px     Val( 2p)     0.95632       0.09713
    64    C   13  py     Val( 2p)     0.94707       0.10399
    65    C   13  pz     Val( 2p)     0.94121       0.10754
 
    66    N   14  S      Cor( 1S)     1.99999     -15.24293
    67    N   14  S      Val( 2S)     1.42533      -0.58605
    68    N   14  px     Val( 2p)     1.50570      -0.14124
    69    N   14  py     Val( 2p)     1.20795      -0.02146
    70    N   14  pz     Val( 2p)     1.14026       0.00968
 
    71    C   15  S      Cor( 1S)     1.99994     -11.01154
    72    C   15  S      Val( 2S)     1.06975      -0.19354
    73    C   15  px     Val( 2p)     0.96738       0.09243
    74    C   15  py     Val( 2p)     0.98613       0.08700
    75    C   15  pz     Val( 2p)     0.93858       0.09199
 
    76    C   16  S      Cor( 1S)     1.99997     -10.97994
    77    C   16  S      Val( 2S)     1.08107      -0.19339
    78    C   16  px     Val( 2p)     0.98233       0.08879
    79    C   16  py     Val( 2p)     0.99014       0.09080
    80    C   16  pz     Val( 2p)     1.02116       0.08248
 
    81    C   17  S      Cor( 1S)     1.99996     -10.98275
    82    C   17  S      Val( 2S)     1.08587      -0.19823
    83    C   17  px     Val( 2p)     0.99831       0.08714
    84    C   17  py     Val( 2p)     0.99232       0.08718
    85    C   17  pz     Val( 2p)     0.99199       0.08610
 
    86    C   18  S      Cor( 1S)     1.99995     -10.98121
    87    C   18  S      Val( 2S)     1.09218      -0.20174
    88    C   18  px     Val( 2p)     1.00128       0.08299
    89    C   18  py     Val( 2p)     0.97376       0.08205
    90    C   18  pz     Val( 2p)     1.00656       0.09247
 
    91    C   19  S      Cor( 1S)     1.99994     -11.00509
    92    C   19  S      Val( 2S)     1.07152      -0.18964
    93    C   19  px     Val( 2p)     1.00954       0.07785
    94    C   19  py     Val( 2p)     0.96975       0.10032
    95    C   19  pz     Val( 2p)     0.91621       0.09593
 
    96    C   20  S      Cor( 1S)     1.99992     -10.98781
    97    C   20  S      Val( 2S)     1.09966      -0.21559
    98    C   20  px     Val( 2p)     1.02132       0.07143
    99    C   20  py     Val( 2p)     0.99988       0.08415
   100    C   20  pz     Val( 2p)     0.95302       0.08489
 
   101    C   21  S      Cor( 1S)     1.99994     -11.01154
   102    C   21  S      Val( 2S)     1.11077      -0.24218
   103    C   21  px     Val( 2p)     1.00685       0.06101
   104    C   21  py     Val( 2p)     0.98875       0.06699
   105    C   21  pz     Val( 2p)     0.97841       0.07571
 
   106    C   22  S      Cor( 1S)     1.99991     -11.11555
   107    C   22  S      Val( 2S)     1.05487      -0.26448
   108    C   22  px     Val( 2p)     0.87072       0.00700
   109    C   22  py     Val( 2p)     0.84556       0.13947
   110    C   22  pz     Val( 2p)     0.82565       0.11831
 
   111    O   23  S      Cor( 1S)     1.99999     -20.10194
   112    O   23  S      Val( 2S)     1.80812      -1.06185
   113    O   23  px     Val( 2p)     1.31282      -0.14560
   114    O   23  py     Val( 2p)     1.34012      -0.12112
   115    O   23  pz     Val( 2p)     1.85072      -0.32547
 
   116    O   24  S      Cor( 1S)     1.99999     -20.21891
   117    O   24  S      Val( 2S)     1.73012      -1.03149
   118    O   24  px     Val( 2p)     1.75190      -0.33650
   119    O   24  py     Val( 2p)     1.62013      -0.28304
   120    O   24  pz     Val( 2p)     1.16482      -0.07549
 
   121    C   25  S      Cor( 1S)     1.99984     -11.04897
   122    C   25  S      Val( 2S)     1.07705      -0.23067
   123    C   25  px     Val( 2p)     0.99786       0.04639
   124    C   25  py     Val( 2p)     0.96639       0.05428
   125    C   25  pz     Val( 2p)     0.92424       0.05228
 
   126    C   26  S      Cor( 1S)     1.99992     -11.01775
   127    C   26  S      Val( 2S)     1.06550      -0.19846
   128    C   26  px     Val( 2p)     0.99336       0.06606
   129    C   26  py     Val( 2p)     0.99294       0.06990
   130    C   26  pz     Val( 2p)     0.96488       0.07097
 
   131    C   27  S      Cor( 1S)     1.99995     -10.98193
   132    C   27  S      Val( 2S)     1.08335      -0.18734
   133    C   27  px     Val( 2p)     0.97951       0.09804
   134    C   27  py     Val( 2p)     1.01657       0.08759
   135    C   27  pz     Val( 2p)     1.00739       0.09036
 
   136    C   28  S      Cor( 1S)     1.99990     -10.95485
   137    C   28  S      Val( 2S)     1.07881      -0.18223
   138    C   28  px     Val( 2p)     0.94025       0.16524
   139    C   28  py     Val( 2p)     0.95670       0.17928
   140    C   28  pz     Val( 2p)     1.00872       0.02844
 
   141    C   29  S      Cor( 1S)     1.99992     -10.94426
   142    C   29  S      Val( 2S)     1.07645      -0.17509
   143    C   29  px     Val( 2p)     0.98379       0.14861
   144    C   29  py     Val( 2p)     0.98265       0.15478
   145    C   29  pz     Val( 2p)     1.02057       0.01417
 
   146    C   30  S      Cor( 1S)     1.99994     -10.94555
   147    C   30  S      Val( 2S)     1.08463      -0.18081
   148    C   30  px     Val( 2p)     0.96764       0.16083
   149    C   30  py     Val( 2p)     0.97496       0.15889
   150    C   30  pz     Val( 2p)     1.00620       0.02099
 
   151    C   31  S      Cor( 1S)     1.99993     -10.93827
   152    C   31  S      Val( 2S)     1.07175      -0.17035
   153    C   31  px     Val( 2p)     0.98766       0.14868
   154    C   31  py     Val( 2p)     0.97372       0.16329
   155    C   31  pz     Val( 2p)     1.05569       0.00891
 
   156    C   32  S      Cor( 1S)     1.99985     -10.98729
   157    C   32  S      Val( 2S)     1.05998      -0.18306
   158    C   32  px     Val( 2p)     0.88049       0.16173
   159    C   32  py     Val( 2p)     0.96616       0.16635
   160    C   32  pz     Val( 2p)     0.97416       0.02386
 
   161    C   33  S      Cor( 1S)     1.99990     -10.94774
   162    C   33  S      Val( 2S)     1.08500      -0.19113
   163    C   33  px     Val( 2p)     0.97004       0.16989
   164    C   33  py     Val( 2p)     0.94497       0.14959
   165    C   33  pz     Val( 2p)     1.02189       0.02051
 
   166    N   34  S      Cor( 1S)     1.99998     -15.26478
   167    N   34  S      Val( 2S)     1.39533      -0.58477
   168    N   34  px     Val( 2p)     1.21296      -0.02519
   169    N   34  py     Val( 2p)     1.11276       0.00176
   170    N   34  pz     Val( 2p)     1.54983      -0.17130
 
   171    C   35  S      Cor( 1S)     1.99996     -11.01054
   172    C   35  S      Val( 2S)     1.10325      -0.23372
   173    C   35  px     Val( 2p)     0.98472       0.06121
   174    C   35  py     Val( 2p)     0.95460       0.11437
   175    C   35  pz     Val( 2p)     0.94672       0.10448
 
   176    C   36  S      Cor( 1S)     1.99996     -11.04787
   177    C   36  S      Val( 2S)     1.11504      -0.25473
   178    C   36  px     Val( 2p)     0.92483       0.08648
   179    C   36  py     Val( 2p)     0.85995       0.12588
   180    C   36  pz     Val( 2p)     0.92140       0.09863
 
   181    C   37  S      Cor( 1S)     1.99991     -11.03114
   182    C   37  S      Val( 2S)     1.10934      -0.24807
   183    C   37  px     Val( 2p)     1.00239       0.06512
   184    C   37  py     Val( 2p)     0.88761       0.08445
   185    C   37  pz     Val( 2p)     0.93183       0.07558
 
   186    C   38  S      Cor( 1S)     1.99993     -10.97670
   187    C   38  S      Val( 2S)     1.10898      -0.21565
   188    C   38  px     Val( 2p)     0.99862       0.08953
   189    C   38  py     Val( 2p)     0.99370       0.09129
   190    C   38  pz     Val( 2p)     0.98327       0.08180
 
   191    C   39  S      Cor( 1S)     1.99996     -10.97780
   192    C   39  S      Val( 2S)     1.09069      -0.19932
   193    C   39  px     Val( 2p)     1.00417       0.08852
   194    C   39  py     Val( 2p)     0.98020       0.08718
   195    C   39  pz     Val( 2p)     0.99986       0.08932
 
   196    C   40  S      Cor( 1S)     1.99998     -11.01072
   197    C   40  S      Val( 2S)     1.09910      -0.22524
   198    C   40  px     Val( 2p)     0.95562       0.10523
   199    C   40  py     Val( 2p)     0.94889       0.10462
   200    C   40  pz     Val( 2p)     0.93750       0.10498
 
   201    N   41  S      Cor( 1S)     1.99999     -15.41573
   202    N   41  S      Val( 2S)     1.39318      -0.65600
   203    N   41  px     Val( 2p)     1.26499      -0.13226
   204    N   41  py     Val( 2p)     1.16397      -0.09875
   205    N   41  pz     Val( 2p)     1.14523      -0.10222
 
   206    C   42  S      Cor( 1S)     1.99992     -11.03655
   207    C   42  S      Val( 2S)     1.09123      -0.23324
   208    C   42  px     Val( 2p)     0.90335       0.08667
   209    C   42  py     Val( 2p)     0.94791       0.06546
   210    C   42  pz     Val( 2p)     1.00761       0.04939
 
   211    C   43  S      Cor( 1S)     1.99995     -10.99007
   212    C   43  S      Val( 2S)     1.08726      -0.20403
   213    C   43  px     Val( 2p)     1.03209       0.07873
   214    C   43  py     Val( 2p)     0.99791       0.07960
   215    C   43  pz     Val( 2p)     0.94625       0.09839
 
   216    C   44  S      Cor( 1S)     1.99994     -10.98599
   217    C   44  S      Val( 2S)     1.09179      -0.20452
   218    C   44  px     Val( 2p)     1.00099       0.08712
   219    C   44  py     Val( 2p)     0.97840       0.09124
   220    C   44  pz     Val( 2p)     0.99124       0.08479
 
   221    C   45  S      Cor( 1S)     1.99993     -10.98387
   222    C   45  S      Val( 2S)     1.09836      -0.20619
   223    C   45  px     Val( 2p)     1.01784       0.08243
   224    C   45  py     Val( 2p)     0.98745       0.08495
   225    C   45  pz     Val( 2p)     0.96327       0.09560
 
   226    C   46  S      Cor( 1S)     1.99993     -11.03038
   227    C   46  S      Val( 2S)     1.09466      -0.23185
   228    C   46  px     Val( 2p)     1.00695       0.06480
   229    C   46  py     Val( 2p)     0.96786       0.05868
   230    C   46  pz     Val( 2p)     0.88486       0.08326
 
   231    C   47  S      Cor( 1S)     1.99991     -10.97248
   232    C   47  S      Val( 2S)     1.10329      -0.20017
   233    C   47  px     Val( 2p)     0.94263       0.10909
   234    C   47  py     Val( 2p)     1.00569       0.10042
   235    C   47  pz     Val( 2p)     1.00897       0.09731
 
   236    C   48  S      Cor( 1S)     1.99994     -11.00153
[...]
   99       1.8309       -1.0379       2.8689         1.2481       0.5829
  102       1.0739       -0.7124       1.7863        -0.0061       1.0801
  103       1.4930        0.3326       1.1604        -0.3266       1.8196
  104      26.2500        0.8805      25.3695         0.5290      25.7210
  105       0.2267       -1.2284       1.4551        -0.4314       0.6581
  107       0.0866       -1.1555       1.2421        -0.8267       0.9134
 Sum       31.5376       -3.4380      34.9756        -0.2071      31.7447

 Contributions to Isotropic shielding for atom   94 (    31.1425 ppm):
                         Standard Origin              Atomic Origin
 NLMO      Total    Paramagnetic  Diamagnetic   Paramagnetic  Diamagnetic
   99      -0.5243        0.3605      -0.8848        -1.3948       0.8704
  102       1.0351        1.3914      -0.3562         0.1347       0.9005
  105       0.7705        2.2355      -1.4649        -0.4027       1.1732
  106      25.8086       -0.3395      26.1481         0.5672      25.2414
  107       2.0232        2.8937      -0.8705         0.1882       1.8350
  108       0.1104        0.4908      -0.3804        -0.8993       1.0096
  116      -0.2224       -1.5052       1.2829        -0.5510       0.3286
 Sum       29.0011        5.5271      23.4741        -2.3576      31.3587

 Contributions to Isotropic shielding for atom   95 (    32.4169 ppm):
                         Standard Origin              Atomic Origin
 NLMO      Total    Paramagnetic  Diamagnetic   Paramagnetic  Diamagnetic
  102       1.4983        0.0459       1.4525         0.5304       0.9680
  105       1.3465        0.5431       0.8034         0.2395       1.1070
  106       1.8415        3.3660      -1.5245        -0.0010       1.8425
  107      26.2146        0.0985      26.1162         0.4091      25.8055
  109       0.0563       -0.0768       0.1331        -1.0723       1.1286
 Sum       30.9573        3.9766      26.9807         0.1056      30.8517

 Contributions to Isotropic shielding for atom   96 (    32.2459 ppm):
                         Standard Origin              Atomic Origin
 NLMO      Total    Paramagnetic  Diamagnetic   Paramagnetic  Diamagnetic
   97       0.7705        1.8759      -1.1054        -0.2006       0.9711
   98      -0.2079        0.8407      -1.0486        -1.1918       0.9839
  105       0.6858        2.4354      -1.7496        -0.3935       1.0793
  106       0.1268       -0.0075       0.1343        -0.9869       1.1137
  108      26.3586       -0.1802      26.5388         0.5979      25.7607
  109       2.2912        0.7253       1.5659         0.5637       1.7275
  117       0.0594       -1.0903       1.1497        -0.7991       0.8585
 Sum       30.0844        4.5993      25.4851        -2.4104      32.4948

 Contributions to Isotropic shielding for atom   97 (    32.9372 ppm):
                         Standard Origin              Atomic Origin
 NLMO      Total    Paramagnetic  Diamagnetic   Paramagnetic  Diamagnetic
   97       1.8511       -1.0188       2.8699         0.8956       0.9555
  102       0.2453       -1.0203       1.2656        -0.2837       0.5289
  105       1.4371       -0.9410       2.3781         0.2986       1.1385
  107      -0.0162       -1.0212       1.0051        -1.0398       1.0236
  108       1.7397        1.5880       0.1518        -0.0998       1.8396
  109      26.3477        0.5419      25.8058         0.2931      26.0546
 Sum       31.6048       -1.8715      33.4763         0.0640      31.5408

 Contributions to Isotropic shielding for atom   98 (    32.6665 ppm):
                         Standard Origin              Atomic Origin
 NLMO      Total    Paramagnetic  Diamagnetic   Paramagnetic  Diamagnetic
   71      -0.7361       -0.1978      -0.5383        -1.7484       1.0123
   80       0.0548        0.5181      -0.4632        -1.0341       1.0889
   85       1.3864       -0.6186       2.0050         0.7565       0.6299
  110       1.1124       -0.0031       1.1156         0.3038       0.8086
  111      26.0693        0.2207      25.8486         0.6024      25.4670
  112       1.7338        2.9643      -1.2305        -0.1901       1.9239
  121       0.0715       -1.4404       1.5118        -0.7314       0.8028
  191      -0.3655        0.7773      -1.1428         0.3134      -0.6788
 Sum       29.3266        2.2205      27.1061        -1.7279      31.0546

 Contributions to Isotropic shielding for atom   99 (    31.3247 ppm):
                         Standard Origin              Atomic Origin
 NLMO      Total    Paramagnetic  Diamagnetic   Paramagnetic  Diamagnetic
   83      -0.4021        1.1416      -1.5436        -0.7904       0.3883
   89      -0.2257       -0.0699      -0.1558        -1.1109       0.8852
  100      -0.3616        0.1297      -0.4913        -1.2096       0.8480
  110       0.9473        1.2079      -0.2606         0.2216       0.7257
  111       1.6445        2.4719      -0.8274        -0.2752       1.9197
  112      25.5702       -0.1726      25.7428         0.6683      24.9019
  113       0.0686        0.6095      -0.5409        -0.9320       1.0006
  118       0.7683       -1.2373       2.0056        -0.0607       0.8290
  120       1.4694       -0.7905       2.2599         0.6140       0.8555
  121      -0.1992       -3.8241       3.6250        -1.2358       1.0366
  123       0.3219       -0.9890       1.3110        -0.4373       0.7592
  126       0.0018       -1.3765       1.3783        -0.4503       0.4521
  191      -0.7597        1.6680      -2.4277         0.2033      -0.9629
  195       0.0362       -0.0068       0.0430         1.0568      -1.0207
 Sum       28.8799       -1.2383      30.1182        -3.7383      32.6182

 Contributions to Isotropic shielding for atom  100 (    30.9531 ppm):
                         Standard Origin              Atomic Origin
 NLMO      Total    Paramagnetic  Diamagnetic   Paramagnetic  Diamagnetic
  100      -0.1215        1.0758      -1.1973        -0.8915       0.7700
  101      -0.0135        0.0947      -0.1081        -1.0340       1.0205
  110       0.2854        1.8599      -1.5744        -0.6985       0.9839
  112       0.1315       -0.3185       0.4501        -0.9013       1.0328
  113      25.8808        0.4485      25.4323         1.0056      24.8752
  114       1.9093       -0.5185       2.4278         0.2177       1.6916
  195       0.2195       -0.3060       0.5256         1.0410      -0.8215
 Sum       28.2916        2.3358      25.9559        -1.2610      29.5526

 Contributions to Isotropic shielding for atom  101 (    31.6315 ppm):
                         Standard Origin              Atomic Origin
 NLMO      Total    Paramagnetic  Diamagnetic   Paramagnetic  Diamagnetic
   71       0.0718       -0.4216       0.4935        -1.0670       1.1388
   85       0.3757       -0.9223       1.2979        -0.4080       0.7837
  100       1.6749       -1.2627       2.9376         1.2214       0.4535
  110       1.0009       -0.7285       1.7294         0.1675       0.8334
  111       0.1344       -0.9244       1.0588        -0.7634       0.8978
  113       1.3712        0.5117       0.8596        -0.4695       1.8407
  114      26.2272        0.9001      25.3271         0.5660      25.6612
 Sum       30.8561       -2.8478      33.7039        -0.7530      31.6091

 Contributions to Isotropic shielding for atom  102 (    29.9160 ppm):
                         Standard Origin              Atomic Origin
 NLMO      Total    Paramagnetic  Diamagnetic   Paramagnetic  Diamagnetic
   87       0.3851       -0.9007       1.2858         0.2782       0.1069
   89      -0.5375        0.2336      -0.7710        -1.4359       0.8984
   97      -0.2324        1.2285      -1.4610        -1.0514       0.8190
   98       1.8522       -1.2954       3.1477         0.9413       0.9109
  115       0.3526        2.1025      -1.7498        -0.5221       0.8748
  116      25.2703       -0.0262      25.2965         0.6331      24.6371
  117       1.3786        3.0725      -1.6939        -0.5407       1.9193
  118      -0.2904       -0.1234      -0.1670        -1.2394       0.9489
  122       1.4387       -2.1178       3.5565         0.2306       1.2082
  125       0.1246       -1.0659       1.1905        -0.5556       0.6803
  126       0.1735       -1.1791       1.3527        -0.4716       0.6451
  193      -1.3402        1.3285      -2.6687         0.0704      -1.4106
  194      -0.4125       -1.3239       0.9113        -0.8624       0.4499
 Sum       28.1626       -0.0669      28.2295        -4.5255      32.6881

 Contributions to Isotropic shielding for atom  103 (    31.8683 ppm):
                         Standard Origin              Atomic Origin
 NLMO      Total    Paramagnetic  Diamagnetic   Paramagnetic  Diamagnetic
   87       0.3892       -0.8366       1.2258         0.1101       0.2792
   94      -0.3557        1.5564      -1.9120        -1.3171       0.9614
   97      -0.1339        1.2357      -1.3696        -0.7412       0.6073
   98       1.7789       -0.5260       2.3049         0.7958       0.9831
  115       0.4489        3.0227      -2.5738        -0.6614       1.1103
  116       1.8025        3.0187      -1.2162        -0.2404       2.0429
  117      26.7425       -0.4029      27.1455         0.6424      26.1002
  118      -0.2653        0.7693      -1.0345        -0.3606       0.0953
  119      -0.1604       -0.9738       0.8134        -1.2999       1.1395
  122       0.7038       -1.0905       1.7943        -0.4136       1.1174
  193      -0.6536        0.3488      -1.0023         0.2030      -0.8565
 Sum       30.2971        6.1217      24.1754        -3.2829      33.5800

 Contributions to Isotropic shielding for atom  104 (    31.4584 ppm):
                         Standard Origin              Atomic Origin
 NLMO      Total    Paramagnetic  Diamagnetic   Paramagnetic  Diamagnetic
   81      -0.7208        1.5673      -2.2881        -1.4149       0.6941
   86      -0.3324        1.5379      -1.8703        -1.4590       1.1266
   87       1.5905        0.5962       0.9943         0.6680       0.9225
  115       1.4468        2.0943      -0.6475         0.1757       1.2711
  117      -0.2135        0.5331      -0.7466        -1.3617       1.1482
  118       0.2087        5.4818      -5.2731        -0.9010       1.1097
  119      26.1504       -0.8241      26.9746         0.4462      25.7042
  122       0.3432       -1.1112       1.4544        -0.9955       1.3387
  127      -0.2393       -2.7078       2.4685        -0.7247       0.4855
 Sum       28.2337        7.1675      21.0663        -5.5670      33.8007

 Contributions to Isotropic shielding for atom  105 (    30.6011 ppm):
                         Standard Origin              Atomic Origin
 NLMO      Total    Paramagnetic  Diamagnetic   Paramagnetic  Diamagnetic
  120      -1.3163        0.8514      -2.1677        -2.2047       0.8884
  121      -0.5082        2.1602      -2.6684        -2.0687       1.5605
  122      -1.9145        1.2282      -3.1427        -2.6880       0.7735
  123       1.0810        0.8518       0.2292        -0.4245       1.5055
  124      26.6106        0.5871      26.0235         1.2416      25.3690
  125       1.1484        4.6412      -3.4928        -0.8824       2.0308
  126       1.5081        0.8925       0.6155        -0.3629       1.8710
  191       0.5961       -1.6808       2.2768         1.3633      -0.7672
  192       0.8229        1.0336      -0.2107         1.0835      -0.2606
  193       1.6015       -1.2430       2.8444         1.6499      -0.0484
  194       0.4734        1.0142      -0.5408         0.0492       0.4242
 Sum       30.1029       10.3366      19.7664        -3.2437      33.3466

 Contributions to Isotropic shielding for atom  106 (    30.6461 ppm):
                         Standard Origin              Atomic Origin
 NLMO      Total    Paramagnetic  Diamagnetic   Paramagnetic  Diamagnetic
  120      -0.6258        0.2769      -0.9027        -1.2539       0.6282
  121      -0.0876        1.0353      -1.1229        -1.1317       1.0440
  123       1.0557        0.9170       0.1386        -1.0317       2.0874
  124       0.5491        4.1151      -3.5660        -1.4250       1.9741
  125      26.1114        0.3752      25.7362         0.8225      25.2889
  126       1.4600        0.7683       0.6917        -0.5406       2.0006
  193       0.9275       -0.9009       1.8284         1.3958      -0.4683
 Sum       29.3903        6.5869      22.8034        -3.1646      32.5549

 Contributions to Isotropic shielding for atom  107 (    30.5670 ppm):
                         Standard Origin              Atomic Origin
 NLMO      Total    Paramagnetic  Diamagnetic   Paramagnetic  Diamagnetic
  120      -0.7990        0.5741      -1.3731        -1.7040       0.9050
  121      -0.3780        1.2155      -1.5935        -1.9210       1.5430
  122      -1.1802        1.2840      -2.4642        -2.0710       0.8908
  123       2.9301       -5.4732       8.4033         1.5278       1.4023
  124       1.1375        1.6111      -0.4736        -0.7264       1.8639
  125       1.5360        1.2859       0.2500        -0.5000       2.0359
  126      26.0185        1.0526      24.9659         0.9217      25.0968
  191       0.2475       -0.9392       1.1867         0.9994      -0.7518
 Sum       29.5124        0.6107      28.9017        -3.4735      32.9859

 Contributions to Isotropic shielding for atom  108 (    31.5245 ppm):
                         Standard Origin              Atomic Origin
 NLMO      Total    Paramagnetic  Diamagnetic   Paramagnetic  Diamagnetic
   76      -0.6017        0.0567      -0.6584        -1.4404       0.8387
   81      -0.5306        1.2894      -1.8200        -1.2550       0.7244
   82       1.3310       -0.5402       1.8713         0.1242       1.2069
   86      -0.1822        0.8909      -1.0731        -0.9271       0.7449
   87      -0.2837        1.3122      -1.5959        -1.1785       0.8948
  121      -0.0356       -0.3316       0.2960        -1.1019       1.0664
  127      26.0557        0.1373      25.9184         0.6270      25.4287
  128       1.5289        4.0844      -2.5555        -0.4607       1.9897
  129       1.4939        1.3780       0.1158        -0.3179       1.8118
  190       1.0856        0.0062       1.0794         1.0691       0.0165
 Sum       29.8614        8.2834      21.5779        -4.8614      34.7228

 Contributions to Isotropic shielding for atom  109 (    30.7978 ppm):
                         Standard Origin              Atomic Origin
 NLMO      Total    Paramagnetic  Diamagnetic   Paramagnetic  Diamagnetic
   75      -0.6028        0.8782      -1.4810        -1.3112       0.7084
   76      -1.0714        0.3486      -1.4200        -2.4277       1.3563
   79      -0.5468        1.0916      -1.6384        -1.1801       0.6333
   82       1.4160       -0.3295       1.7455         0.2087       1.2073
  127       1.5344        4.0453      -2.5109        -0.4338       1.9682
  128      25.9727        0.1089      25.8638         0.6769      25.2958
  129       1.5367        1.6037      -0.0671        -0.2625       1.7991
 Sum       28.2388        7.7468      20.4920        -4.7296      32.9684

 Contributions to Isotropic shielding for atom  110 (    31.9978 ppm):
                         Standard Origin              Atomic Origin
 NLMO      Total    Paramagnetic  Diamagnetic   Paramagnetic  Diamagnetic
   75      -0.3378        0.7189      -1.0567        -0.9420       0.6042
   76      -0.9549        0.0683      -1.0233        -2.1321       1.1771
   79      -0.4432        0.8517      -1.2949        -0.9712       0.5280
   82       2.0346       -3.1912       5.2258         1.2595       0.7751
   86      -0.2860        0.8371      -1.1231        -1.3570       1.0710
   92      -0.0354        1.2114      -1.2468        -0.8793       0.8439
  127       1.8225        2.3174      -0.4949        -0.0803       1.9028
  128       1.8215        2.6025      -0.7810        -0.0808       1.9023
  129      26.5899        0.7875      25.8024         0.8559      25.7340
 Sum       30.2111        6.2037      24.0074        -4.3273      34.5384
 
 1\1\GINC-PCSN02\SP\RHF\STO-3G\C45H56N4O5\ABENIDD\30-May-2024\0\\# nmr=
 giao hf/sto-3g pop=nbo geom=connectivity\\Pleiokomenine_C_2\\0,1\C,0,0
 .,0.,0.\C,0,1.4015,0.,0.\C,0,2.0952,1.2285,0.\C,0,1.4104,2.4507,-0.008
 2\C,0,0.0266,2.4437,-0.0079\C,0,-0.6617,1.2182,0.0205\N,0,-0.8565,3.55
 64,-0.0247\C,0,-2.1361,1.4968,0.1716\C,0,-2.138,2.9437,-0.4594\C,0,-3.
 1734,0.6257,-0.5495\C,0,-2.1468,2.8099,-2.0439\C,0,-3.4115,2.0918,-2.5
 339\C,0,-4.1837,1.5459,-1.3161\N,0,-3.7431,-0.221,0.503\C,0,-4.9848,-0
 .8929,0.1448\C,0,-6.019,-0.0166,-0.5617\C,0,-5.4055,0.7237,-1.7502\C,0
 ,-2.4549,1.3139,1.677\C,0,-3.7681,0.5453,1.7387\C,0,-4.6295,2.8113,-0.
 5062\C,0,-3.4263,3.7212,-0.1379\C,0,-3.547,4.2997,1.2608\O,0,-4.2755,3
 .8628,2.1432\O,0,-2.7845,5.4223,1.384\C,0,-2.8198,6.0153,2.6819\C,0,-0
 .3565,4.777,-0.6395\C,0,2.1627,-1.3064,0.0976\C,0,2.5979,-1.6528,1.508
 1\C,0,1.6776,-1.6207,2.5661\C,0,3.927,-2.0574,1.763\C,0,4.3588,-2.3863
 ,3.0568\C,0,3.4576,-2.3009,4.1006\C,0,2.1189,-1.9366,3.8393\N,0,3.6851
 ,-2.4953,5.4904\C,0,1.3492,-2.0438,5.1358\C,0,2.561,-1.7309,6.0823\C,0
 ,0.2275,-1.0885,5.5038\C,0,2.9393,-0.164,5.9717\C,0,1.7197,0.7365,6.18
 48\C,0,0.54,-0.1269,6.659\N,0,-0.9698,-1.9634,5.8409\C,0,-2.188,-1.101
 4,5.8024\C,0,-2.0598,-0.0339,6.908\C,0,-0.7204,0.7395,6.9025\C,0,0.637
 6,-3.423,5.0247\C,0,-0.8448,-3.0512,4.8393\C,0,1.0723,-0.874,7.9302\C,
 0,2.2254,-1.8894,7.5828\C,0,1.992,-3.305,8.089\O,0,2.4256,-4.3267,7.57
 26\O,0,1.369,-3.2813,9.3045\C,0,1.0564,-4.5735,9.821\C,0,5.0386,-2.380
 5,5.9954\O,0,-0.9298,-2.5754,7.0701\H,0,-0.5615,-0.9293,0.0414\H,0,3.1
 832,1.235,0.0272\H,0,1.9707,3.3784,0.0015\H,0,-2.6869,-0.0429,-1.2728\
 H,0,-2.096,3.7999,-2.5152\H,0,-1.2657,2.269,-2.4112\H,0,-4.0364,2.7857
 ,-3.1102\H,0,-3.1329,1.285,-3.2231\H,0,-4.7288,-1.7237,-0.5256\H,0,-5.
 4353,-1.361,1.0286\H,0,-6.8429,-0.6466,-0.9171\H,0,-6.4576,0.6933,0.14
 79\H,0,-5.1094,-0.0116,-2.5097\H,0,-6.162,1.3665,-2.216\H,0,-1.6946,0.
 6908,2.1711\H,0,-2.4733,2.2398,2.2506\H,0,-3.7909,-0.1127,2.6141\H,0,-
 4.6248,1.2161,1.8145\H,0,-5.2197,2.5371,0.3683\H,0,-5.3213,3.4032,-1.1
 229\H,0,-3.491,4.6002,-0.7978\H,0,-2.478,5.3034,3.4399\H,0,-3.8285,6.3
 728,2.9107\H,0,-2.1402,6.8719,2.6813\H,0,0.0608,4.5944,-1.6362\H,0,0.4
 182,5.2313,-0.0126\H,0,-1.1572,5.5157,-0.7423\H,0,1.5505,-2.1304,-0.29
 12\H,0,3.0347,-1.2452,-0.5664\H,0,0.6398,-1.3586,2.3941\H,0,4.644,-2.1
 148,0.9464\H,0,5.3871,-2.6852,3.2231\H,0,-0.0731,-0.5204,4.6107\H,0,3.
 4044,0.103,5.0149\H,0,3.7035,0.0785,6.7232\H,0,1.9567,1.5225,6.9124\H,
 0,1.4735,1.2494,5.2461\H,0,-3.0492,-1.7561,5.9716\H,0,-2.2544,-0.6584,
 4.8034\H,0,-2.1722,-0.5148,7.8878\H,0,-2.8896,0.6769,6.8211\H,0,-0.619
 7,1.3017,7.8386\H,0,-0.7904,1.49,6.1031\H,0,0.9716,-4.0588,4.1965\H,0,
 0.7448,-4.0167,5.9319\H,0,-1.5385,-3.8571,5.0953\H,0,-1.0694,-2.6326,3
 .8531\H,0,0.2605,-1.3262,8.503\H,0,1.4858,-0.1248,8.6216\H,0,3.1057,-1
 .5752,8.1644\H,0,1.9739,-5.1133,10.0749\H,0,0.4693,-4.4405,10.7339\H,0
 ,0.4552,-5.1435,9.1053\H,0,5.0519,-2.5025,7.0829\H,0,5.6736,-3.1705,5.
 5805\H,0,5.4859,-1.41,5.7552\\Version=ES64L-G16RevB.01\State=1-A\HF=-2
 300.2026261\RMSD=3.828e-09\Dipole=-0.3688601,1.8466567,-1.3740591\Quad
 rupole=5.1722345,-3.6556853,-1.5165493,2.8931096,7.4379546,5.5141162\P
 G=C01 [X(C45H56N4O5)]\\@


 THE WORLD IS MADE UP OF THE WILLS, THE WON'TS, AND THE CANT'S:
 THE WILLS DO EVERYTHING,
 THE WON'TS DO NOTHING,
 THE CAN'TS CAN'T DO ANYTHING.

                               -- FROM WALT DISNEY'S "BLACK HOLE"
 Job cpu time:       0 days  0 hours 11 minutes 24.1 seconds.
 Elapsed time:       0 days  0 hours  1 minutes 55.3 seconds.
 File lengths (MBytes):  RWF=     67 Int=      0 D2E=      0 Chk=     10 Scr=      1
 Normal termination of Gaussian 16 at Thu May 30 09:49:16 2024.
