 Entering Gaussian System, Link 0=g16
 Input=2_pleiokomenine_2a_c_3.gjf
 Output=2_pleiokomenine_2a_c_3.log
 Initial command:
 /opt/gaussian/g16/l1.exe "/data/abenidd/Elvis/pleiokomenine_C/NMR_HF/2a/2_pleiokomenine_2a_c_3/Gau-28480.inp" -scrdir="/data/abenidd/Elvis/pleiokomenine_C/NMR_HF/2a/2_pleiokomenine_2a_c_3/"
 Entering Link 1 = /opt/gaussian/g16/l1.exe PID=     28482.
  
 Copyright (c) 1988-2017, Gaussian, Inc.  All Rights Reserved.
  
 This is part of the Gaussian(R) 16 program.  It is based on
 the Gaussian(R) 09 system (copyright 2009, Gaussian, Inc.),
 the Gaussian(R) 03 system (copyright 2003, Gaussian, Inc.),
 the Gaussian(R) 98 system (copyright 1998, Gaussian, Inc.),
 the Gaussian(R) 94 system (copyright 1995, Gaussian, Inc.),
 the Gaussian 92(TM) system (copyright 1992, Gaussian, Inc.),
 the Gaussian 90(TM) system (copyright 1990, Gaussian, Inc.),
 the Gaussian 88(TM) system (copyright 1988, Gaussian, Inc.),
 the Gaussian 86(TM) system (copyright 1986, Carnegie Mellon
 University), and the Gaussian 82(TM) system (copyright 1983,
 Carnegie Mellon University). Gaussian is a federally registered
 trademark of Gaussian, Inc.
  
 This software contains proprietary and confidential information,
 including trade secrets, belonging to Gaussian, Inc.
  
 This software is provided under written license and may be
 used, copied, transmitted, or stored only in accord with that
 written license.
  
 The following legend is applicable only to US Government
 contracts under FAR:
  
                    RESTRICTED RIGHTS LEGEND
  
 Use, reproduction and disclosure by the US Government is
 subject to restrictions as set forth in subparagraphs (a)
 and (c) of the Commercial Computer Software - Restricted
 Rights clause in FAR 52.227-19.
  
 Gaussian, Inc.
 340 Quinnipiac St., Bldg. 40, Wallingford CT 06492
  
  
 ---------------------------------------------------------------
 Warning -- This program may not be used in any manner that
 competes with the business of Gaussian, Inc. or will provide
 assistance to any competitor of Gaussian, Inc.  The licensee
 of this program is prohibited from giving any competitor of
 Gaussian, Inc. access to this program.  By using this program,
 the user acknowledges that Gaussian, Inc. is engaged in the
 business of creating and licensing software in the field of
 computational chemistry and represents and warrants to the
 licensee that it is not a competitor of Gaussian, Inc. and that
 it will not use this program in any manner prohibited above.
 ---------------------------------------------------------------
  

 Cite this work as:
 Gaussian 16, Revision B.01,
 M. J. Frisch, G. W. Trucks, H. B. Schlegel, G. E. Scuseria, 
 M. A. Robb, J. R. Cheeseman, G. Scalmani, V. Barone, 
 G. A. Petersson, H. Nakatsuji, X. Li, M. Caricato, A. V. Marenich, 
 J. Bloino, B. G. Janesko, R. Gomperts, B. Mennucci, H. P. Hratchian, 
 J. V. Ortiz, A. F. Izmaylov, J. L. Sonnenberg, D. Williams-Young, 
 F. Ding, F. Lipparini, F. Egidi, J. Goings, B. Peng, A. Petrone, 
 T. Henderson, D. Ranasinghe, V. G. Zakrzewski, J. Gao, N. Rega, 
 G. Zheng, W. Liang, M. Hada, M. Ehara, K. Toyota, R. Fukuda, 
 J. Hasegawa, M. Ishida, T. Nakajima, Y. Honda, O. Kitao, H. Nakai, 
 T. Vreven, K. Throssell, J. A. Montgomery, Jr., J. E. Peralta, 
 F. Ogliaro, M. J. Bearpark, J. J. Heyd, E. N. Brothers, K. N. Kudin, 
 V. N. Staroverov, T. A. Keith, R. Kobayashi, J. Normand, 
 K. Raghavachari, A. P. Rendell, J. C. Burant, S. S. Iyengar, 
 J. Tomasi, M. Cossi, J. M. Millam, M. Klene, C. Adamo, R. Cammi, 
 J. W. Ochterski, R. L. Martin, K. Morokuma, O. Farkas, 
 J. B. Foresman, and D. J. Fox, Gaussian, Inc., Wallingford CT, 2016.
 
 ******************************************
 Gaussian 16:  ES64L-G16RevB.01 20-Dec-2017
                30-May-2024 
 ******************************************
 %nprocshared=8
 Will use up to    8 processors via shared memory.
 ----------------------------------------------
 # nmr=giao hf/sto-3g pop=nbo geom=connectivity
 ----------------------------------------------
 1/38=1,57=2,172=1/1;
 2/12=2,17=6,18=5,40=1/2;
 3/6=3,11=9,25=1,30=1/1,2,3,8;
 4//1;
 5/5=2,38=5/2;
 8/6=1,10=90,11=11/1;
 10/13=100,45=16/2;
 6/7=2,8=2,9=2,10=2,28=1,40=1,64=1/1,7;
 99/9=1/99;
 -----------------
 Pleiokomenine_C_2
 -----------------
 Symbolic Z-matrix:
 Charge =  0 Multiplicity = 1
 C                     0.        0.        0. 
 C                     1.4015    0.        0. 
 C                     2.0887    1.2315    0. 
 C                     1.3977    2.4522   -0.0113 
 C                     0.0138    2.4414   -0.0134 
 C                    -0.6673    1.214     0.0193 
 N                    -0.8759    3.5479   -0.0404 
 C                    -2.1431    1.4811    0.1689 
 C                    -2.1548    2.9244   -0.4693 
 C                    -3.1715    0.5956   -0.5481 
 C                    -2.1641    2.7823   -2.0532 
 C                    -3.4233    2.0512   -2.5386 
 C                    -4.1901    1.5043   -1.3177 
 N                    -3.7307   -0.2584    0.5064 
 C                    -4.9699   -0.9374    0.1525 
 C                    -6.0113   -0.0703   -0.5544 
 C                    -5.4055    0.6703   -1.7468 
 C                    -2.4617    1.3031    1.6741 
 C                    -3.7641    0.517     1.7384 
 C                    -4.645     2.7704   -0.514 
 C                    -3.4491    3.693    -0.1504 
 C                    -3.5761    4.276     1.2459 
 O                    -4.322     3.8514    2.1198 
 O                    -2.8012    5.3891    1.3754 
 C                    -2.8363    5.9792    2.6746 
 C                    -0.3836    4.7684   -0.6601 
 C                     2.1612   -1.3082    0.0652 
 C                     2.1137   -1.9481    1.4367 
 C                     1.0025   -2.7161    1.8127 
 C                     3.1579   -1.7366    2.3631 
 C                     3.0999   -2.2608    3.6622 
 C                     1.977    -2.9715    4.0423 
 C                     0.9448   -3.2046    3.1063 
 N                     1.6477   -3.4912    5.3249 
 C                    -0.0982   -4.0711    3.7753 
 C                     0.1697   -3.5669    5.2373 
 C                    -1.5857   -3.9154    3.5095 
 C                    -0.3964   -2.0615    5.4001 
 C                    -1.8535   -1.9448    4.9456 
 C                    -2.4057   -3.3539    4.6797 
 N                    -2.0844   -5.2975    3.1177 
 C                    -3.4118   -5.1306    2.4551 
 C                    -4.3991   -4.5508    3.488 
 C                    -3.8866   -3.2954    4.2309 
 C                     0.2231   -5.5004    3.2525 
 C                    -0.9522   -5.8126    2.3086 
 C                    -2.1611   -4.1425    6.0121 
 C                    -0.6276   -4.3416    6.3112 
 C                    -0.2178   -5.7847    6.565 
 O                     0.8835   -6.2647    6.33 
 O                    -1.1957   -6.4449    7.2536 
 C                    -0.9143   -7.8246    7.4805 
 C                     2.316    -2.9411    6.4877 
 O                    -2.2437   -6.1871    4.1518 
 H                    -0.5648   -0.9256    0.0329 
 H                     3.1764    1.2467    0.0213 
 H                     1.954     3.3825   -0.0044 
 H                    -2.6785   -0.0693   -1.2704 
 H                    -2.1218    3.7703   -2.5295 
 H                    -1.279     2.2468   -2.4184 
 H                    -4.0545    2.7372   -3.1176 
 H                    -3.1386    1.2436   -3.2244 
 H                    -4.7101   -1.7687   -0.5159 
 H                    -5.415    -1.4064    1.0386 
 H                    -6.8316   -0.7071   -0.9061 
 H                    -6.4534    0.6388    0.1537 
 H                    -5.1044   -0.0656   -2.5038 
 H                    -6.1679    1.3049   -2.2141 
 H                    -2.496     2.2323    2.2417 
 H                    -1.6936    0.6943    2.1734 
 H                    -3.7804   -0.1341    2.6183 
 H                    -4.6291    1.1778    1.809 
 H                    -5.2325    2.4949    0.3619 
 H                    -5.3421    3.3536   -1.133 
 H                    -3.5213    4.569    -0.8135 
 H                    -2.5125    5.2599    3.4335 
 H                    -3.8406    6.3532    2.8965 
 H                    -2.1424    6.8242    2.6815 
 H                     0.0345    4.5837   -1.6561 
 H                     0.3887    5.23     -0.0356 
 H                    -1.1889    5.5017   -0.7659 
 H                     1.7503   -2.0023   -0.68 
 H                     3.2055   -1.1547   -0.2362 
 H                     0.202    -2.9127    1.1086 
 H                     4.0235   -1.142     2.0783 
 H                     3.9118   -2.0753    4.3554 
 H                    -1.7309   -3.2922    2.6144 
 H                     0.196    -1.3139    4.8587 
 H                    -0.3209   -1.7579    6.4536 
 H                    -1.9059   -1.3293    4.0386 
 H                    -2.4437   -1.4217    5.7079 
 H                    -3.7246   -6.1219    2.1107 
 H                    -3.2764   -4.4688    1.5934 
 H                    -4.6313   -5.3194    4.2357 
 H                    -5.3464   -4.3156    2.989 
 H                    -4.5362   -3.0885    5.0899 
 H                    -4.0124   -2.4479    3.5439 
 H                     1.1732   -5.6013    2.7152 
 H                     0.2416   -6.2383    4.0536 
 H                    -1.099    -6.8805    2.1231 
 H                    -0.9196   -5.248     1.3714 
 H                    -2.728    -5.075     6.0398 
 H                    -2.5889   -3.5588    6.8407 
 H                    -0.4345   -3.8689    7.2865 
 H                    -0.7122   -8.3406    6.5363 
 H                    -0.0716   -7.9322    8.1704 
 H                    -1.7969   -8.2794    7.9387 
 H                     3.3883   -3.1621    6.4566 
 H                     1.9259   -3.3967    7.4031 
 H                     2.1844   -1.8564    6.5633 
 
 Stoichiometry    C45H56N4O5
 Framework group  C1[X(C45H56N4O5)]
 Deg. of freedom   324
 Full point group                 C1      NOp   1
 Largest Abelian subgroup         C1      NOp   1
 Largest concise Abelian subgroup C1      NOp   1
                         Standard orientation:                         
 ---------------------------------------------------------------------
 Center     Atomic      Atomic             Coordinates (Angstroms)
 Number     Number       Type             X           Y           Z
 ---------------------------------------------------------------------
      1          6           0       -1.786929    1.644405   -1.524470
      2          6           0       -1.466374    2.993548   -1.727598
      3          6           0       -2.301228    3.988505   -1.178132
      4          6           0       -3.448785    3.653869   -0.444068
      5          6           0       -3.757762    2.318752   -0.250942
      6          6           0       -2.906942    1.330653   -0.771749
      7          7           0       -4.867355    1.761978    0.438584
      8          6           0       -3.377880   -0.018264   -0.291804
      9          6           0       -4.892048    0.363671   -0.063828
     10          6           0       -3.291702   -1.245274   -1.209861
     11          6           0       -5.645476    0.322257   -1.463703
     12          6           0       -5.609869   -1.086005   -2.072994
     13          6           0       -4.677349   -1.976868   -1.227743
     14          7           0       -2.155270   -2.018807   -0.695898
     15          6           0       -2.085179   -3.394210   -1.170512
     16          6           0       -3.408258   -4.159253   -1.154512
     17          6           0       -4.518059   -3.371040   -1.850471
     18          6           0       -2.484613   -0.378870    0.920983
     19          6           0       -2.114113   -1.845696    0.749275
     20          6           0       -5.361992   -2.075026    0.178495
     21          6           0       -5.632915   -0.675388    0.795897
     22          6           0       -5.368372   -0.645096    2.290812
     23          8           0       -4.719262   -1.481409    2.906921
     24          8           0       -6.017005    0.401736    2.873606
     25          6           0       -5.790237    0.522786    4.277634
     26          6           0       -6.076658    2.568691    0.491576
     27          6           0       -0.203157    3.370423   -2.472601
     28          6           0        1.051119    3.146237   -1.654510
     29          6           0        1.621148    1.867186   -1.583379
     30          6           0        1.625954    4.205175   -0.918630
     31          6           0        2.745052    4.002483   -0.098664
     32          6           0        3.268487    2.727666    0.007797
     33          6           0        2.708550    1.674469   -0.749245
     34          7           0        4.312889    2.265090    0.855640
     35          6           0        3.533679    0.433288   -0.494561
     36          6           0        3.987934    0.822142    0.956603
     37          6           0        2.922742   -0.955477   -0.419482
     38          6           0        2.734769    0.684161    1.968404
     39          6           0        2.059058   -0.685182    1.860508
     40          6           0        2.922513   -1.597259    0.975210
     41          7           0        3.707866   -1.808265   -1.403730
     42          6           0        2.907633   -3.038372   -1.678225
     43          6           0        2.779347   -3.835728   -0.364612
     44          6           0        2.291356   -3.005293    0.844862
     45          6           0        4.472772    0.357585   -1.732230
     46          6           0        3.939505   -0.854754   -2.516837
     47          6           0        4.342011   -1.580369    1.639851
     48          6           0        5.016632   -0.159200    1.563116
     49          6           0        6.411578   -0.156393    0.955657
     50          8           0        6.921681    0.774696    0.346268
     51          8           0        7.096126   -1.279125    1.326049
     52          6           0        8.395928   -1.382654    0.748090
     53          6           0        4.658206    3.052950    2.022418
     54          8           0        4.953292   -2.206399   -0.983573
     55          1           0       -1.152513    0.849973   -1.902902
     56          1           0       -2.053048    5.039606   -1.309931
     57          1           0       -4.067177    4.441240   -0.028600
     58          1           0       -3.038146   -0.947972   -2.236593
     59          1           0       -6.692031    0.632287   -1.347949
     60          1           0       -5.211283    1.030690   -2.180035
     61          1           0       -6.623330   -1.505692   -2.104795
     62          1           0       -5.269054   -1.027996   -3.114182
     63          1           0       -1.721456   -3.366653   -2.206012
     64          1           0       -1.324834   -3.953028   -0.611185
     65          1           0       -3.275147   -5.119988   -1.665755
     66          1           0       -3.693539   -4.395536   -0.123752
     67          1           0       -4.270169   -3.277561   -2.915868
     68          1           0       -5.459067   -3.931366   -1.796812
     69          1           0       -2.930720   -0.162461    1.890991
     70          1           0       -1.545593    0.193807    0.906892
     71          1           0       -1.112390   -2.041013    1.145284
     72          1           0       -2.805674   -2.499737    1.282041
     73          1           0       -4.795666   -2.718495    0.851904
     74          1           0       -6.329579   -2.585832    0.068568
     75          1           0       -6.717544   -0.505196    0.712793
     76          1           0       -4.721927    0.636857    4.487082
     77          1           0       -6.199926   -0.343577    4.806126
     78          1           0       -6.308443    1.419522    4.628201
     79          1           0       -6.376663    2.924945   -0.500401
     80          1           0       -5.930501    3.434748    1.145874
     81          1           0       -6.909387    1.992419    0.906187
     82          1           0       -0.145338    2.789774   -3.402892
     83          1           0       -0.252700    4.418414   -2.795442
     84          1           0        1.211561    1.046034   -2.160577
     85          1           0        1.189284    5.200508   -0.969187
     86          1           0        3.160230    4.831645    0.461904
     87          1           0        1.898247   -0.923123   -0.819517
     88          1           0        1.972105    1.458899    1.823211
     89          1           0        3.083323    0.835042    2.999656
     90          1           0        1.055486   -0.565534    1.432999
     91          1           0        1.919361   -1.114597    2.860087
     92          1           0        3.446377   -3.606574   -2.443752
     93          1           0        1.934480   -2.725576   -2.070617
     94          1           0        3.754079   -4.270191   -0.109942
     95          1           0        2.100457   -4.682063   -0.521205
     96          1           0        2.445644   -3.577867    1.767371
     97          1           0        1.204362   -2.894324    0.734492
     98          1           0        4.477670    1.246911   -2.373039
     99          1           0        5.509304    0.172565   -1.452998
    100          1           0        4.664778   -1.284501   -3.213736
    101          1           0        2.979870   -0.666948   -3.008781
    102          1           0        4.978663   -2.378671    1.253733
    103          1           0        4.226883   -1.837295    2.703350
    104          1           0        5.213120    0.150968    2.600965
    105          1           0        8.341710   -1.324227   -0.343817
    106          1           0        9.052453   -0.603187    1.146951
    107          1           0        8.810875   -2.357159    1.019995
    108          1           0        5.064492    4.025473    1.724482
    109          1           0        5.436352    2.550594    2.605371
    110          1           0        3.795651    3.219663    2.676493
 ---------------------------------------------------------------------
 Rotational constants (GHZ):           0.0947128           0.0334180           0.0298148
 Standard basis: STO-3G (5D, 7F)
 There are   326 symmetry adapted cartesian basis functions of A   symmetry.
 There are   326 symmetry adapted basis functions of A   symmetry.
   326 basis functions,   978 primitive gaussians,   326 cartesian basis functions
   197 alpha electrons      197 beta electrons
       nuclear repulsion energy      8157.4026785877 Hartrees.
 NAtoms=  110 NActive=  110 NUniq=  110 SFac= 1.00D+00 NAtFMM=   60 NAOKFM=T Big=T
 Integral buffers will be    131072 words long.
 Raffenetti 1 integral format.
 Two-electron integral symmetry is turned on.
 One-electron integrals computed using PRISM.
 NBasis=   326 RedAO= T EigKep=  1.72D-01  NBF=   326
 NBsUse=   326 1.00D-06 EigRej= -1.00D+00 NBFU=   326
 ExpMin= 1.69D-01 ExpMax= 1.31D+02 ExpMxC= 1.31D+02 IAcc=3 IRadAn=         5 AccDes= 0.00D+00
 Harris functional with IExCor=  205 and IRadAn=       5 diagonalized for initial guess.
 HarFok:  IExCor=  205 AccDes= 0.00D+00 IRadAn=         5 IDoV= 1 UseB2=F ITyADJ=14
 ICtDFT=  3500011 ScaDFX=  1.000000  1.000000  1.000000  1.000000
 FoFCou: FMM=F IPFlag=           0 FMFlag=      100000 FMFlg1=        2001
         NFxFlg=           0 DoJE=T BraDBF=F KetDBF=T FulRan=T
         wScrn=  0.000000 ICntrl=       500 IOpCl=  0 I1Cent=   200000004 NGrid=           0
         NMat0=    1 NMatS0=      1 NMatT0=    0 NMatD0=    1 NMtDS0=    0 NMtDT0=    0
 Petite list used in FoFCou.
 Requested convergence on RMS density matrix=1.00D-08 within 128 cycles.
 Requested convergence on MAX density matrix=1.00D-06.
 Requested convergence on             energy=1.00D-06.
 No special actions if energy rises.
 Integral accuracy reduced to 1.0D-05 until final iterations.
 Initial convergence to 1.0D-05 achieved.  Increase integral accuracy.
 SCF Done:  E(RHF) =  -2300.20236509     A.U. after   16 cycles
            NFock= 16  Conv=0.39D-08     -V/T= 2.0093
 Range of M.O.s used for correlation:     1   326
 NBasis=   326 NAE=   197 NBE=   197 NFC=     0 NFV=     0
 NROrb=    326 NOA=   197 NOB=   197 NVA=   129 NVB=   129
          Differentiating once with respect to magnetic field using GIAOs.
          Electric field/nuclear overlap derivatives assumed to be zero.
 FoFCou: FMM=F IPFlag=           0 FMFlag=      100000 FMFlg1=        2001
         NFxFlg=           0 DoJE=F BraDBF=F KetDBF=T FulRan=T
         wScrn=  0.000000 ICntrl=      6100 IOpCl=  0 I1Cent=           7 NGrid=         110
         NMat0=    1 NMatS0=      1 NMatT0=    0 NMatD0=    1 NMtDS0=    0 NMtDT0=    0
 Symmetry not used in FoFCou.
 FoFJK:  IHMeth= 1 ICntrl=    6127 DoSepK=F KAlg= 0 I1Cent=           0 FoldK=F
 IRaf=         1 NMat=       1 IRICut=       1 DoRegI=T DoRafI=F ISym2E= 0 IDoP0=0 IntGTp=1.
          There are     3 degrees of freedom in the 1st order CPHF.  IDoFFX=0 NUNeed=     3.
      3 vectors produced by pass  0 Test12= 8.47D-13 3.33D-08 XBig12= 1.77D+02 2.27D+00.
 AX will form     3 AO Fock derivatives at one time.
      3 vectors produced by pass  1 Test12= 8.47D-13 3.33D-08 XBig12= 6.88D-01 2.15D-01.
      3 vectors produced by pass  2 Test12= 8.47D-13 3.33D-08 XBig12= 1.87D-02 4.33D-02.
      3 vectors produced by pass  3 Test12= 8.47D-13 3.33D-08 XBig12= 3.99D-04 5.85D-03.
      3 vectors produced by pass  4 Test12= 8.47D-13 3.33D-08 XBig12= 1.39D-05 5.95D-04.
      3 vectors produced by pass  5 Test12= 8.47D-13 3.33D-08 XBig12= 2.70D-07 1.00D-04.
      3 vectors produced by pass  6 Test12= 8.47D-13 3.33D-08 XBig12= 8.76D-09 2.14D-05.
      3 vectors produced by pass  7 Test12= 8.47D-13 3.33D-08 XBig12= 3.29D-10 3.50D-06.
      3 vectors produced by pass  8 Test12= 8.47D-13 3.33D-08 XBig12= 6.00D-12 4.08D-07.
      2 vectors produced by pass  9 Test12= 8.47D-13 3.33D-08 XBig12= 1.06D-13 7.91D-08.
 InvSVY:  IOpt=1 It=  1 EMax= 1.78D-15
 Solved reduced A of dimension    29 with     3 vectors.
 Calculating GIAO nuclear magnetic shielding tensors.
 SCF GIAO Magnetic shielding tensor (ppm):
      1  C    Isotropic =   125.2377   Anisotropy =   150.5445
   XX=   120.5354   YX=    37.7695   ZX=    72.1874
   XY=    37.6662   YY=    69.7589   ZY=   -21.7397
   XZ=    57.5183   YZ=   -15.5655   ZZ=   185.4188
   Eigenvalues:    32.8331   117.2794   225.6007
      2  C    Isotropic =   120.1986   Anisotropy =   156.9688
   XX=    93.1296   YX=   -15.1500   ZX=    86.1252
   XY=   -10.7393   YY=    91.2851   ZY=     4.2320
   XZ=    73.8581   YZ=     4.8311   ZZ=   176.1810
   Eigenvalues:    40.9486    94.8027   224.8444
      3  C    Isotropic =   119.4893   Anisotropy =   150.2698
   XX=   135.7443   YX=   -23.6633   ZX=    55.5860
   XY=   -20.5938   YY=    34.9280   ZY=     9.4021
   XZ=    47.3207   YZ=     2.4045   ZZ=   187.7954
   Eigenvalues:    28.3476   110.4510   219.6692
      4  C    Isotropic =   133.6658   Anisotropy =   142.5577
   XX=   133.4775   YX=    32.0620   ZX=    63.7102
   XY=    23.9956   YY=    82.7653   ZY=   -16.8695
   XZ=    65.6688   YZ=   -19.5956   ZZ=   184.7546
   Eigenvalues:    52.5457   119.7474   228.7043
      5  C    Isotropic =   109.4000   Anisotropy =   126.8675
   XX=    89.1919   YX=    -4.8038   ZX=    66.1075
   XY=    -2.1123   YY=    91.2622   ZY=     1.9485
   XZ=    72.0714   YZ=    19.3084   ZZ=   147.7459
   Eigenvalues:    41.8714    92.3503   193.9783
      6  C    Isotropic =   117.6725   Anisotropy =   140.4907
   XX=   136.1454   YX=    -3.0339   ZX=    55.8950
   XY=    -4.9546   YY=    51.2665   ZY=    10.6621
   XZ=    61.3250   YZ=     0.6144   ZZ=   165.6057
   Eigenvalues:    50.1552    91.5294   211.3330
      7  N    Isotropic =   274.4140   Anisotropy =    82.4510
   XX=   296.7017   YX=    29.2330   ZX=   -10.6532
   XY=    48.8388   YY=   274.1132   ZY=    -8.0753
   XZ=   -19.2722   YZ=    -5.3998   ZZ=   252.4272
   Eigenvalues:   242.7894   251.0713   329.3814
      8  C    Isotropic =   196.1354   Anisotropy =    12.9894
   XX=   195.1153   YX=    -8.3151   ZX=    -2.6224
   XY=    -7.1965   YY=   196.8794   ZY=     6.5880
   XZ=    -0.1849   YZ=    -1.3762   ZZ=   196.4116
   Eigenvalues:   188.1304   195.4809   204.7950
      9  C    Isotropic =   181.1171   Anisotropy =    45.0087
   XX=   176.4127   YX=    -1.2964   ZX=   -18.3132
   XY=    -4.2683   YY=   205.3217   ZY=     9.0439
   XZ=    -6.1442   YZ=    20.7525   ZZ=   161.6171
   Eigenvalues:   152.0395   180.1890   211.1230
     10  C    Isotropic =   190.3464   Anisotropy =    30.5345
   XX=   193.8491   YX=   -13.6279   ZX=    13.5851
   XY=   -10.7592   YY=   197.3772   ZY=    -2.5261
   XZ=     9.5097   YZ=    -1.1101   ZZ=   179.8129
   Eigenvalues:   172.3661   187.9704   210.7027
     11  C    Isotropic =   213.8044   Anisotropy =    19.3734
   XX=   210.4389   YX=     0.0695   ZX=     8.3114
   XY=    -1.9268   YY=   210.2935   ZY=     5.6103
   XZ=    11.1796   YZ=    -0.8279   ZZ=   220.6809
   Eigenvalues:   203.8948   210.7984   226.7200
     12  C    Isotropic =   212.7647   Anisotropy =    21.4508
   XX=   211.3386   YX=    -8.6115   ZX=     6.9667
   XY=    -9.8470   YY=   215.8849   ZY=    -5.7886
   XZ=     6.4668   YZ=    -3.7242   ZZ=   211.0707
   Eigenvalues:   202.9955   208.2334   227.0652
     13  C    Isotropic =   213.5956   Anisotropy =     8.2600
   XX=   209.9757   YX=     3.0358   ZX=    -1.3521
   XY=     1.5623   YY=   213.5652   ZY=     3.0020
   XZ=     2.4466   YZ=     2.7362   ZZ=   217.2457
   Eigenvalues:   208.7715   212.9129   219.1022
     14  N    Isotropic =   301.8885   Anisotropy =    54.3250
   XX=   281.1666   YX=   -48.0982   ZX=    19.9464
   XY=   -33.4604   YY=   304.1623   ZY=     5.7145
   XZ=    27.9108   YZ=    16.4724   ZZ=   320.3366
   Eigenvalues:   241.8003   325.7601   338.1052
     15  C    Isotropic =   205.2697   Anisotropy =    33.3713
   XX=   202.3597   YX=    -1.7461   ZX=    -3.3589
   XY=    -2.0269   YY=   221.5336   ZY=    16.4564
   XZ=    -2.3067   YZ=    11.8328   ZZ=   191.9156
   Eigenvalues:   186.0160   202.2759   227.5172
     16  C    Isotropic =   224.2291   Anisotropy =     9.5149
   XX=   229.6282   YX=    -2.9877   ZX=     1.8800
   XY=    -1.3121   YY=   224.7287   ZY=    -1.4297
   XZ=     1.5487   YZ=     3.3515   ZZ=   218.3303
   Eigenvalues:   217.8319   224.2829   230.5724
     17  C    Isotropic =   215.3530   Anisotropy =    19.4284
   XX=   210.7839   YX=    -3.5525   ZX=     0.6894
   XY=    -7.6749   YY=   224.2742   ZY=     7.2576
   XZ=    -1.8344   YZ=     4.7996   ZZ=   211.0008
   Eigenvalues:   207.4389   210.3148   228.3052
     18  C    Isotropic =   210.6574   Anisotropy =    36.9689
   XX=   207.0147   YX=    -7.7224   ZX=    17.7223
   XY=    -9.2897   YY=   216.8029   ZY=    -5.5295
   XZ=    19.6087   YZ=   -14.0011   ZZ=   208.1547
   Eigenvalues:   188.8900   207.7790   235.3034
     19  C    Isotropic =   199.9667   Anisotropy =    39.9106
   XX=   182.4724   YX=    -6.9555   ZX=     4.4482
   XY=    -9.3564   YY=   196.0900   ZY=    12.8484
   XZ=    10.7140   YZ=    11.3055   ZZ=   221.3378
   Eigenvalues:   175.3585   197.9679   226.5738
     20  C    Isotropic =   212.1712   Anisotropy =    20.9966
   XX=   204.9200   YX=     3.8203   ZX=    -8.4462
   XY=     1.7520   YY=   211.1812   ZY=     6.8954
   XZ=    -9.1420   YZ=     6.5382   ZZ=   220.4125
   Eigenvalues:   198.5390   211.8057   226.1690
     21  C    Isotropic =   209.1166   Anisotropy =     9.5364
   XX=   204.9687   YX=     6.5331   ZX=     0.4472
   XY=     6.4579   YY=   207.2963   ZY=    -4.9953
   XZ=    -1.6949   YZ=     3.3450   ZZ=   215.0849
   Eigenvalues:   199.5334   212.3423   215.4742
     22  C    Isotropic =    96.4378   Anisotropy =    98.4226
   XX=   148.1330   YX=    21.6836   ZX=    37.6642
   XY=    16.7549   YY=   114.8274   ZY=   -89.0178
   XZ=    24.4598   YZ=   -70.8779   ZZ=    26.3528
   Eigenvalues:   -28.3378   155.5983   162.0528
     23  O    Isotropic =  -134.4782   Anisotropy =   888.5518
   XX=   135.1514   YX=   447.4071   ZX=  -129.2069
   XY=   456.5605   YY=  -210.1006   ZY=    30.4932
   XZ=  -148.5843   YZ=    39.5905   ZZ=  -328.4854
   Eigenvalues:  -570.8882  -290.4361   457.8897
     24  O    Isotropic =   283.7648   Anisotropy =   139.9440
   XX=   341.1976   YX=    -5.0872   ZX=  -104.3110
   XY=    19.7084   YY=   359.0372   ZY=   118.3085
   XZ=   -37.1793   YZ=   -13.8554   ZZ=   151.0596
   Eigenvalues:   116.5125   357.7211   377.0608
     25  C    Isotropic =   197.3757   Anisotropy =    57.1959
   XX=   179.6114   YX=     0.7155   ZX=     4.6939
   XY=     1.3707   YY=   178.4218   ZY=     7.8112
   XZ=     4.4664   YZ=     7.4046   ZZ=   234.0938
   Eigenvalues:   177.3072   179.3135   235.5063
     26  C    Isotropic =   209.9649   Anisotropy =    42.1368
   XX=   222.8987   YX=   -20.4616   ZX=    -3.8475
   XY=   -21.1866   YY=   208.1044   ZY=     2.4631
   XZ=    -4.7782   YZ=    -0.0415   ZZ=   198.8915
   Eigenvalues:   192.9944   198.8442   238.0561
     27  C    Isotropic =   206.5595   Anisotropy =    15.0499
   XX=   216.5097   YX=     0.6211   ZX=     1.6995
   XY=     0.6182   YY=   201.1534   ZY=    -5.5118
   XZ=     0.4277   YZ=    -3.9222   ZZ=   202.0153
   Eigenvalues:   196.7777   206.3079   216.5927
     28  C    Isotropic =   120.8249   Anisotropy =   156.8789
   XX=   108.3842   YX=    30.1728   ZX=   -81.3413
   XY=    26.3975   YY=   101.3727   ZY=   -18.8631
   XZ=   -85.5354   YZ=   -19.4765   ZZ=   152.7178
   Eigenvalues:    42.0559    95.0080   225.4109
     29  C    Isotropic =   127.7296   Anisotropy =   146.0895
   XX=   145.3178   YX=    -3.9574   ZX=   -65.9909
   XY=   -12.6964   YY=    75.8869   ZY=   -54.7558
   XZ=   -56.5453   YZ=   -55.7833   ZZ=   161.9841
   Eigenvalues:    36.0334   122.0328   225.1226
     30  C    Isotropic =   119.4909   Anisotropy =   151.8509
   XX=   131.6096   YX=    45.6961   ZX=   -56.4100
   XY=    46.7968   YY=    49.3892   ZY=   -14.2295
   XZ=   -48.8091   YZ=   -15.9352   ZZ=   177.4739
   Eigenvalues:    28.1392   109.6086   220.7249
     31  C    Isotropic =   133.7518   Anisotropy =   143.8848
   XX=   153.7369   YX=    -3.0099   ZX=   -62.8047
   XY=    -1.9715   YY=    86.2460   ZY=   -41.2407
   XZ=   -65.2865   YZ=   -53.7859   ZZ=   161.2725
   Eigenvalues:    51.5642   120.0162   229.6750
     32  C    Isotropic =   107.7305   Anisotropy =   131.0435
   XX=   107.8592   YX=    26.4661   ZX=   -71.5983
   XY=    13.5993   YY=    94.9409   ZY=   -16.9552
   XZ=   -76.3698   YZ=   -16.6596   ZZ=   120.3916
   Eigenvalues:    39.6516    88.4472   195.0928
     33  C    Isotropic =   117.5017   Anisotropy =   142.2441
   XX=   132.1557   YX=    18.8029   ZX=   -59.7010
   XY=    32.0395   YY=    56.8808   ZY=   -14.2110
   XZ=   -55.5467   YZ=   -15.5078   ZZ=   163.4686
   Eigenvalues:    49.0067    91.1673   212.3312
     34  N    Isotropic =   272.4552   Anisotropy =    84.2768
   XX=   269.4391   YX=   -13.1068   ZX=    30.4550
   XY=   -24.9686   YY=   270.6464   ZY=   -44.0873
   XZ=    19.0507   YZ=   -32.2367   ZZ=   277.2801
   Eigenvalues:   235.3201   253.4058   328.6398
     35  C    Isotropic =   200.8398   Anisotropy =    16.5628
   XX=   207.2076   YX=     2.1336   ZX=    -1.8406
   XY=     9.4076   YY=   199.1257   ZY=     5.7969
   XZ=     4.9228   YZ=     8.8938   ZZ=   196.1860
   Eigenvalues:   189.7727   200.8651   211.8816
     36  C    Isotropic =   179.2505   Anisotropy =    40.1923
   XX=   169.8143   YX=    16.5713   ZX=     8.0309
   XY=     3.7336   YY=   201.4290   ZY=     6.1658
   XZ=    21.8316   YZ=     0.8471   ZZ=   166.5083
   Eigenvalues:   152.7580   178.9482   206.0454
     37  C    Isotropic =   183.3460   Anisotropy =    42.3866
   XX=   176.0356   YX=    -1.8863   ZX=   -25.1838
   XY=    -5.8275   YY=   187.3872   ZY=    15.0912
   XZ=   -18.1587   YZ=    13.7023   ZZ=   186.6152
   Eigenvalues:   157.6785   180.7557   211.6037
     38  C    Isotropic =   211.1078   Anisotropy =    23.5255
   XX=   216.5657   YX=    -1.1732   ZX=   -15.2996
   XY=     5.5232   YY=   206.5772   ZY=    -2.8277
   XZ=    -9.0384   YZ=    -4.9665   ZZ=   210.1805
   Eigenvalues:   200.2482   206.2837   226.7915
     39  C    Isotropic =   212.9945   Anisotropy =    18.4953
   XX=   214.7730   YX=    -2.4403   ZX=    -4.4884
   XY=    -6.6297   YY=   216.5756   ZY=     7.7508
   XZ=    -3.9311   YZ=     9.4987   ZZ=   207.6349
   Eigenvalues:   202.2462   211.4126   225.3247
     40  C    Isotropic =   211.5089   Anisotropy =    10.4764
   XX=   212.1018   YX=     2.2435   ZX=    -0.6823
   XY=     3.1559   YY=   216.4724   ZY=    -2.7453
   XZ=     0.2521   YZ=    -3.7168   ZZ=   205.9525
   Eigenvalues:   204.9969   211.0367   218.4932
     41  N    Isotropic =   235.2466   Anisotropy =    24.1006
   XX=   238.1409   YX=   -27.5332   ZX=     5.3797
   XY=    -5.0416   YY=   226.0601   ZY=    10.5762
   XZ=    10.9884   YZ=    -0.1340   ZZ=   241.5388
   Eigenvalues:   211.9787   242.4474   251.3137
     42  C    Isotropic =   193.5967   Anisotropy =    49.8464
   XX=   189.6793   YX=    20.4209   ZX=     5.6414
   XY=    25.7260   YY=   210.0148   ZY=     8.7207
   XZ=     4.0361   YZ=     6.4269   ZZ=   181.0961
   Eigenvalues:   174.6312   179.3314   226.8277
     43  C    Isotropic =   219.1457   Anisotropy =     8.6929
   XX=   210.0169   YX=     2.1597   ZX=    -5.8592
   XY=    -0.9113   YY=   224.2809   ZY=     0.0169
   XZ=    -4.1739   YZ=    -0.1382   ZZ=   223.1393
   Eigenvalues:   208.2984   224.1978   224.9409
     44  C    Isotropic =   214.8047   Anisotropy =    21.1815
   XX=   211.8796   YX=     5.0327   ZX=    -1.7055
   XY=     7.1588   YY=   226.1581   ZY=     5.9762
   XZ=    -3.0993   YZ=     2.9678   ZZ=   206.3764
   Eigenvalues:   203.5462   211.9422   228.9257
     45  C    Isotropic =   207.2815   Anisotropy =    34.3223
   XX=   194.0841   YX=     5.4609   ZX=   -21.8558
   XY=     1.7197   YY=   211.7782   ZY=     7.0059
   XZ=   -18.0386   YZ=    12.0414   ZZ=   215.9821
   Eigenvalues:   180.2249   211.4566   230.1630
     46  C    Isotropic =   190.6662   Anisotropy =    52.0731
   XX=   163.9839   YX=     9.8237   ZX=    -8.9020
   XY=     3.4890   YY=   202.8986   ZY=   -23.0637
   XZ=   -14.2958   YZ=   -14.0861   ZZ=   205.1160
   Eigenvalues:   160.8511   185.7658   225.3816
     47  C    Isotropic =   211.7067   Anisotropy =    26.9035
   XX=   224.4711   YX=     8.5060   ZX=     6.7024
   XY=     8.6797   YY=   210.7042   ZY=    -3.2429
   XZ=     8.5689   YZ=    -3.6020   ZZ=   199.9447
   Eigenvalues:   195.4090   210.0687   229.6423
     48  C    Isotropic =   207.1923   Anisotropy =    17.9462
   XX=   216.9710   YX=    -4.2445   ZX=     1.0978
   XY=    -6.9934   YY=   204.4411   ZY=     1.8036
   XZ=    -1.9178   YZ=     0.5967   ZZ=   200.1649
   Eigenvalues:   199.7563   202.6643   219.1565
     49  C    Isotropic =    98.2132   Anisotropy =    97.0817
   XX=    26.6189   YX=    72.4881   ZX=    14.2492
   XY=    94.4738   YY=   111.7553   ZY=    -8.5482
   XZ=     2.0232   YZ=    -0.2573   ZZ=   156.2653
   Eigenvalues:   -24.9914   156.6966   162.9343
     50  O    Isotropic =  -132.6068   Anisotropy =   878.3280
   XX=  -248.8423   YX=    10.8603   ZX=   240.5019
   XY=    22.9938   YY=  -322.5268   ZY=   379.0527
   XZ=   239.1602   YZ=   391.7471   ZZ=   173.5488
   Eigenvalues:  -569.7467  -281.0189   452.9452
     51  O    Isotropic =   285.8374   Anisotropy =   142.3962
   XX=   189.6643   YX=     3.9770   ZX=    76.7356
   XY=  -122.3261   YY=   356.0176   ZY=    48.2363
   XZ=   118.3302   YZ=   -10.0299   ZZ=   311.8304
   Eigenvalues:   119.8587   356.8854   380.7683
     52  C    Isotropic =   197.4650   Anisotropy =    57.2811
   XX=   228.2234   YX=    -7.5270   ZX=   -17.5643
   XY=    -7.3980   YY=   178.1254   ZY=     3.3433
   XZ=   -17.4715   YZ=     2.2149   ZZ=   186.0463
   Eigenvalues:   177.0210   179.7217   235.6524
     53  C    Isotropic =   211.0620   Anisotropy =    41.7137
   XX=   203.4574   YX=     7.3394   ZX=     8.8679
   XY=     8.4917   YY=   208.7476   ZY=    18.7662
   XZ=     8.6358   YZ=    19.5558   ZZ=   220.9810
   Eigenvalues:   194.4797   199.8352   238.8712
     54  O    Isotropic =    74.8268   Anisotropy =   407.0684
   XX=   287.6222   YX=  -124.4796   ZX=    67.4954
   XY=  -109.9133   YY=   -28.2100   ZY=   -27.1439
   XZ=    93.8546   YZ=   -38.8993   ZZ=   -34.9317
   Eigenvalues:   -69.3297   -52.3955   346.2057
     55  H    Isotropic =    25.7139   Anisotropy =    14.2022
   XX=    30.2540   YX=     5.0616   ZX=    -2.4405
   XY=     4.7106   YY=    27.3120   ZY=    -2.9168
   XZ=    -4.2228   YZ=    -3.1887   ZZ=    19.5755
   Eigenvalues:    18.2444    23.7152    35.1820
     56  H    Isotropic =    25.7341   Anisotropy =     6.6138
   XX=    28.1397   YX=    -1.8924   ZX=    -2.8461
   XY=    -0.9217   YY=    27.4883   ZY=    -0.0108
   XZ=    -3.6069   YZ=     0.2214   ZZ=    21.5743
   Eigenvalues:    20.2273    26.8317    30.1433
     57  H    Isotropic =    26.6251   Anisotropy =     7.9929
   XX=    27.0872   YX=     1.6328   ZX=    -3.2668
   XY=     1.4751   YY=    31.1538   ZY=    -0.2887
   XZ=    -3.9536   YZ=    -0.4528   ZZ=    21.6343
   Eigenvalues:    19.8250    28.0966    31.9538
     58  H    Isotropic =    31.5049   Anisotropy =     8.1069
   XX=    30.5064   YX=     1.5530   ZX=    -2.0953
   XY=     1.0505   YY=    29.6552   ZY=    -3.3154
   XZ=    -3.7980   YZ=    -1.2795   ZZ=    34.3532
   Eigenvalues:    28.6843    28.9210    36.9095
     59  H    Isotropic =    32.1723   Anisotropy =    14.0762
   XX=    38.7853   YX=    -5.0553   ZX=     2.5569
   XY=    -5.1337   YY=    30.6726   ZY=     1.6698
   XZ=     4.0272   YZ=     2.4157   ZZ=    27.0592
   Eigenvalues:    24.1667    30.7939    41.5565
     60  H    Isotropic =    32.8960   Anisotropy =     8.8094
   XX=    29.4471   YX=     2.9906   ZX=     0.5216
   XY=     1.2118   YY=    34.5569   ZY=    -5.0741
   XZ=     3.0652   YZ=    -3.2126   ZZ=    34.6840
   Eigenvalues:    27.1567    32.7624    38.7689
     61  H    Isotropic =    32.3358   Anisotropy =    15.5520
   XX=    39.5920   YX=     3.2246   ZX=     5.4502
   XY=     2.8734   YY=    29.6018   ZY=     2.0849
   XZ=     5.3900   YZ=     2.1418   ZZ=    27.8136
   Eigenvalues:    25.4761    28.8275    42.7038
     62  H    Isotropic =    32.5679   Anisotropy =    13.3933
   XX=    27.4703   YX=    -0.4000   ZX=     1.0133
   XY=    -1.0455   YY=    28.8363   ZY=    -0.3852
   XZ=     1.3450   YZ=     0.6854   ZZ=    41.3970
   Eigenvalues:    27.0675    29.1393    41.4967
     63  H    Isotropic =    31.8410   Anisotropy =    13.1625
   XX=    32.9005   YX=    -0.3937   ZX=    -5.7332
   XY=    -1.3088   YY=    28.3096   ZY=     4.4100
   XZ=    -6.1579   YZ=     3.4483   ZZ=    34.3130
   Eigenvalues:    25.5526    29.3545    40.6160
     64  H    Isotropic =    31.8563   Anisotropy =    14.9802
   XX=    37.6837   YX=    -4.7261   ZX=     3.9035
   XY=    -5.7361   YY=    32.8707   ZY=    -0.2790
   XZ=     4.2120   YZ=    -0.6149   ZZ=    25.0145
   Eigenvalues:    23.6807    30.0451    41.8431
     65  H    Isotropic =    32.6180   Anisotropy =    17.5108
   XX=    28.6531   YX=    -1.4675   ZX=     0.3288
   XY=    -1.3348   YY=    42.1139   ZY=     5.7415
   XZ=     0.3557   YZ=     6.2022   ZZ=    27.0872
   Eigenvalues:    24.8382    28.7240    44.2919
     66  H    Isotropic =    32.5234   Anisotropy =    10.2272
   XX=    28.8911   YX=     1.0928   ZX=    -2.2221
   XY=     0.7661   YY=    33.9876   ZY=    -4.3116
   XZ=    -2.2367   YZ=    -4.6736   ZZ=    34.6915
   Eigenvalues:    28.0319    30.1968    39.3415
     67  H    Isotropic =    32.6356   Anisotropy =    13.0013
   XX=    27.7775   YX=    -0.9711   ZX=     0.5409
   XY=    -1.2447   YY=    29.9314   ZY=     3.4623
   XZ=     0.5982   YZ=     3.6160   ZZ=    40.1978
   Eigenvalues:    26.9662    29.6374    41.3031
     68  H    Isotropic =    32.4593   Anisotropy =    15.2111
   XX=    36.5251   YX=     6.2304   ZX=     2.4551
   XY=     5.9277   YY=    34.8147   ZY=     3.1737
   XZ=     1.9075   YZ=     2.8259   ZZ=    26.0382
   Eigenvalues:    25.0997    29.6782    42.6001
     69  H    Isotropic =    33.1160   Anisotropy =    10.2853
   XX=    33.6897   YX=    -2.1101   ZX=    -2.4275
   XY=    -0.6505   YY=    27.1384   ZY=     2.3110
   XZ=    -2.5684   YZ=     1.3930   ZZ=    38.5198
   Eigenvalues:    26.6970    32.6781    39.9729
     70  H    Isotropic =    32.8702   Anisotropy =    15.0310
   XX=    40.5733   YX=     3.3410   ZX=     3.7898
   XY=     5.5141   YY=    32.0351   ZY=     0.0794
   XZ=     3.3518   YZ=    -3.2733   ZZ=    26.0022
   Eigenvalues:    24.2272    31.4924    42.8909
     71  H    Isotropic =    32.0344   Anisotropy =    17.8597
   XX=    40.7148   YX=    -3.0505   ZX=     5.4738
   XY=    -2.4672   YY=    27.2739   ZY=    -0.8235
   XZ=     7.2763   YZ=    -1.8654   ZZ=    28.1144
   Eigenvalues:    25.4279    26.7343    43.9408
     72  H    Isotropic =    31.9710   Anisotropy =     8.4061
   XX=    31.4275   YX=     0.9925   ZX=    -1.6379
   XY=     1.8681   YY=    31.2634   ZY=    -3.9739
   XZ=    -1.5731   YZ=    -4.9782   ZZ=    33.2221
   Eigenvalues:    27.6573    30.6807    37.5751
     73  H    Isotropic =    31.4127   Anisotropy =     8.9047
   XX=    29.0184   YX=    -2.2998   ZX=     0.2702
   XY=    -2.9476   YY=    32.6422   ZY=    -3.5600
   XZ=    -0.0577   YZ=    -4.9782   ZZ=    32.5775
   Eigenvalues:    26.7154    30.1735    37.3491
     74  H    Isotropic =    32.2136   Anisotropy =    15.1309
   XX=    37.3045   YX=     7.0954   ZX=    -2.0052
   XY=     6.5343   YY=    32.7206   ZY=     1.4378
   XZ=    -2.6362   YZ=     0.8111   ZZ=    26.6157
   Eigenvalues:    24.8178    29.5221    42.3009
     75  H    Isotropic =    31.2065   Anisotropy =    13.0016
   XX=    39.0406   YX=    -2.1469   ZX=    -2.5046
   XY=    -0.7355   YY=    27.3184   ZY=     2.0473
   XZ=    -2.8845   YZ=     1.1710   ZZ=    27.2604
   Eigenvalues:    25.6033    28.1419    39.8742
     76  H    Isotropic =    30.7215   Anisotropy =     7.4167
   XX=    33.3417   YX=     1.5205   ZX=     2.6774
   XY=     0.8462   YY=    26.0600   ZY=     1.8447
   XZ=     1.6332   YZ=     1.6680   ZZ=    32.7628
   Eigenvalues:    25.5706    30.9280    35.6660
     77  H    Isotropic =    30.6035   Anisotropy =    11.6998
   XX=    27.6640   YX=     1.6094   ZX=    -3.9161
   XY=     2.3409   YY=    29.7761   ZY=    -3.9205
   XZ=    -4.3296   YZ=    -3.5625   ZZ=    34.3705
   Eigenvalues:    25.6900    27.7172    38.4034
     78  H    Isotropic =    30.5792   Anisotropy =    12.1776
   XX=    27.8024   YX=    -3.6619   ZX=    -3.0178
   XY=    -3.8051   YY=    31.8077   ZY=     4.0892
   XZ=    -3.8612   YZ=     4.6476   ZZ=    32.1276
   Eigenvalues:    25.4112    27.6289    38.6976
     79  H    Isotropic =    31.9247   Anisotropy =    12.1504
   XX=    32.2949   YX=    -5.1415   ZX=     2.4887
   XY=    -5.1549   YY=    32.6020   ZY=    -3.1945
   XZ=     4.3900   YZ=    -3.2564   ZZ=    30.8773
   Eigenvalues:    27.2645    28.4847    40.0250
     80  H    Isotropic =    30.7603   Anisotropy =    14.4211
   XX=    27.6817   YX=    -2.3697   ZX=    -3.2042
   XY=    -2.4183   YY=    36.4360   ZY=     5.8447
   XZ=    -2.5976   YZ=     5.7521   ZZ=    28.1631
   Eigenvalues:    24.3211    27.5854    40.3743
     81  H    Isotropic =    30.9313   Anisotropy =    10.9739
   XX=    35.7930   YX=    -0.7600   ZX=    -5.7643
   XY=    -1.3582   YY=    30.3142   ZY=    -0.8086
   XZ=    -4.7830   YZ=    -1.1273   ZZ=    26.6868
   Eigenvalues:    23.9955    30.5511    38.2473
     82  H    Isotropic =    30.0708   Anisotropy =     7.9155
   XX=    26.4851   YX=    -0.4870   ZX=    -0.0839
   XY=    -0.6504   YY=    29.2732   ZY=     1.7828
   XZ=    -0.8059   YZ=     2.7479   ZZ=    34.4540
   Eigenvalues:    26.3736    28.4909    35.3478
     83  H    Isotropic =    29.8998   Anisotropy =    12.5175
   XX=    27.3617   YX=    -0.5001   ZX=     0.1844
   XY=    -0.7137   YY=    36.3117   ZY=    -4.2736
   XZ=     0.5466   YZ=    -5.3154   ZZ=    26.0260
   Eigenvalues:    24.1334    27.3212    38.2448
     84  H    Isotropic =    25.9728   Anisotropy =    12.0627
   XX=    30.2000   YX=    -4.4391   ZX=     2.5879
   XY=    -3.9268   YY=    26.4300   ZY=    -2.0966
   XZ=     3.7872   YZ=    -1.8969   ZZ=    21.2883
   Eigenvalues:    20.1761    23.7277    34.0146
     85  H    Isotropic =    25.7927   Anisotropy =     6.9188
   XX=    27.0011   YX=     1.6437   ZX=     3.4282
   XY=     0.8664   YY=    27.9077   ZY=     0.8498
   XZ=     4.3850   YZ=     1.5707   ZZ=    22.4693
   Eigenvalues:    20.1949    26.7779    30.4052
     86  H    Isotropic =    26.5834   Anisotropy =     7.4992
   XX=    26.1228   YX=    -1.4492   ZX=     4.1646
   XY=    -1.3393   YY=    30.8688   ZY=    -0.1937
   XZ=     4.1458   YZ=    -0.5320   ZZ=    22.7587
   Eigenvalues:    19.9367    28.2307    31.5829
     87  H    Isotropic =    31.5228   Anisotropy =    10.1393
   XX=    37.3299   YX=     0.5547   ZX=     3.1520
   XY=    -0.9271   YY=    30.4085   ZY=     0.4606
   XZ=     3.4196   YZ=    -1.0867   ZZ=    26.8300
   Eigenvalues:    25.8727    30.4133    38.2823
     88  H    Isotropic =    33.5082   Anisotropy =     8.3235
   XX=    35.3254   YX=    -3.1463   ZX=    -4.1414
   XY=    -4.2465   YY=    35.3402   ZY=    -0.2457
   XZ=     0.2676   YZ=    -2.2397   ZZ=    29.8591
   Eigenvalues:    28.3144    33.1530    39.0572
     89  H    Isotropic =    32.2812   Anisotropy =    12.4950
   XX=    27.7173   YX=     2.8343   ZX=    -0.6746
   XY=     1.7259   YY=    29.4505   ZY=     3.2346
   XZ=     1.4391   YZ=     2.9358   ZZ=    39.6759
   Eigenvalues:    25.9753    30.2571    40.6112
     90  H    Isotropic =    33.0358   Anisotropy =    17.9362
   XX=    44.7891   YX=     0.4491   ZX=     1.1272
   XY=    -0.6314   YY=    28.2073   ZY=     0.7763
   XZ=     2.7912   YZ=    -1.3719   ZZ=    26.1110
   Eigenvalues:    25.8724    28.2417    44.9933
     91  H    Isotropic =    32.3556   Anisotropy =    13.5170
   XX=    29.7252   YX=     2.2903   ZX=    -4.6566
   XY=     2.2269   YY=    28.9572   ZY=    -2.9903
   XZ=    -3.6571   YZ=    -3.8673   ZZ=    38.3844
   Eigenvalues:    27.0494    28.6504    41.3670
     92  H    Isotropic =    30.7577   Anisotropy =    14.2287
   XX=    26.4521   YX=    -0.3367   ZX=    -3.2525
   XY=    -1.8422   YY=    32.9151   ZY=     6.4782
   XZ=    -3.6032   YZ=     6.6873   ZZ=    32.9061
   Eigenvalues:    24.3753    27.6544    40.2436
     93  H    Isotropic =    31.7276   Anisotropy =    11.4511
   XX=    36.1117   YX=     1.2765   ZX=     5.0034
   XY=     2.0573   YY=    29.1852   ZY=     1.3932
   XZ=     5.1325   YZ=     1.0660   ZZ=    29.8859
   Eigenvalues:    27.0141    28.8070    39.3616
     94  H    Isotropic =    30.9967   Anisotropy =    13.9166
   XX=    32.9066   YX=    -6.1825   ZX=     1.5221
   XY=    -6.6725   YY=    34.1542   ZY=    -1.2173
   XZ=     1.9714   YZ=    -1.0825   ZZ=    25.9295
   Eigenvalues:    25.4770    27.2388    40.2745
     95  H    Isotropic =    32.2091   Anisotropy =    15.9190
   XX=    30.5915   YX=     6.5887   ZX=     0.1502
   XY=     5.7675   YY=    39.3726   ZY=     1.9581
   XZ=     0.6487   YZ=     2.2434   ZZ=    26.6633
   Eigenvalues:    26.1192    27.6864    42.8218
     96  H    Isotropic =    32.0843   Anisotropy =    13.8460
   XX=    26.7821   YX=     1.4983   ZX=    -0.1043
   XY=     1.2640   YY=    34.4801   ZY=    -6.4289
   XZ=     0.4004   YZ=    -6.6201   ZZ=    34.9908
   Eigenvalues:    26.1482    28.7898    41.3150
     97  H    Isotropic =    32.4869   Anisotropy =    16.6224
   XX=    43.3380   YX=     2.0678   ZX=    -0.8862
   XY=     1.5229   YY=    29.2954   ZY=     1.5884
   XZ=    -0.0096   YZ=     0.8341   ZZ=    24.8273
   Eigenvalues:    24.4783    29.4139    43.5685
     98  H    Isotropic =    32.5439   Anisotropy =    11.5370
   XX=    29.3332   YX=    -0.2715   ZX=    -4.2285
   XY=     2.4954   YY=    34.7957   ZY=    -5.4218
   XZ=    -4.9470   YZ=    -3.7568   ZZ=    33.5029
   Eigenvalues:    26.0286    31.3679    40.2353
     99  H    Isotropic =    31.2296   Anisotropy =    12.4185
   XX=    39.4612   YX=    -0.1216   ZX=     0.1310
   XY=     1.2115   YY=    25.2055   ZY=     0.8061
   XZ=     0.8609   YZ=     0.8129   ZZ=    29.0219
   Eigenvalues:    25.0277    29.1524    39.5086
    100  H    Isotropic =    30.8612   Anisotropy =    15.2321
   XX=    29.2642   YX=    -2.1708   ZX=    -5.9349
   XY=    -0.6530   YY=    27.3010   ZY=     2.4737
   XZ=    -7.4887   YZ=     3.8558   ZZ=    36.0183
   Eigenvalues:    24.9906    26.5770    41.0159
    101  H    Isotropic =    31.4634   Anisotropy =    10.1795
   XX=    30.9089   YX=    -1.5707   ZX=     4.1137
   XY=    -1.5339   YY=    28.3680   ZY=    -1.9893
   XZ=     4.7268   YZ=    -0.4005   ZZ=    35.1134
   Eigenvalues:    27.4060    28.7345    38.2497
    102  H    Isotropic =    29.8310   Anisotropy =    11.6008
   XX=    33.6469   YX=    -4.5390   ZX=     1.4775
   XY=    -4.7620   YY=    31.9288   ZY=     0.5678
   XZ=     2.4976   YZ=     1.7275   ZZ=    23.9172
   Eigenvalues:    22.9637    28.9643    37.5649
    103  H    Isotropic =    31.7942   Anisotropy =    13.9312
   XX=    28.6043   YX=     0.6763   ZX=     2.3914
   XY=     0.1052   YY=    29.1143   ZY=    -5.5927
   XZ=     3.3778   YZ=    -6.0574   ZZ=    37.6640
   Eigenvalues:    25.2486    29.0523    41.0817
    104  H    Isotropic =    31.4281   Anisotropy =    12.6131
   XX=    29.4227   YX=     0.8301   ZX=     5.7297
   XY=    -0.5110   YY=    28.4714   ZY=     3.1817
   XZ=     4.9876   YZ=     2.2514   ZZ=    36.3901
   Eigenvalues:    25.8883    28.5591    39.8368
    105  H    Isotropic =    30.5308   Anisotropy =     7.4587
   XX=    31.9332   YX=    -1.4901   ZX=    -1.6503
   XY=    -1.6356   YY=    25.5788   ZY=     0.2861
   XZ=    -2.3307   YZ=     1.3728   ZZ=    34.0803
   Eigenvalues:    25.1998    30.8893    35.5032
    106  H    Isotropic =    30.5812   Anisotropy =    11.7618
   XX=    36.5224   YX=     2.9134   ZX=     2.7064
   XY=     3.5151   YY=    28.9757   ZY=     1.7561
   XZ=     2.4270   YZ=     1.3783   ZZ=    26.2456
   Eigenvalues:    25.3963    27.9250    38.4225
    107  H    Isotropic =    30.6174   Anisotropy =    12.5280
   XX=    32.9594   YX=    -6.0025   ZX=     1.3743
   XY=    -5.3373   YY=    33.0939   ZY=    -1.7545
   XZ=     0.9363   YZ=    -1.2866   ZZ=    25.7988
   Eigenvalues:    25.4944    27.3884    38.9694
    108  H    Isotropic =    30.8502   Anisotropy =    15.2897
   XX=    28.6337   YX=     5.9233   ZX=     2.1997
   XY=     5.5876   YY=    38.0576   ZY=     0.7758
   XZ=     2.6236   YZ=     1.3028   ZZ=    25.8593
   Eigenvalues:    24.0271    27.4802    41.0433
    109  H    Isotropic =    31.5445   Anisotropy =    12.0804
   XX=    32.2192   YX=    -0.0980   ZX=     7.4248
   XY=    -0.6397   YY=    31.0645   ZY=     1.6507
   XZ=     7.9795   YZ=     1.7857   ZZ=    31.3498
   Eigenvalues:    23.7590    31.2764    39.5981
    110  H    Isotropic =    32.0661   Anisotropy =    10.8903
   XX=    30.1631   YX=    -0.3632   ZX=    -3.7319
   XY=    -0.7816   YY=    31.3364   ZY=     5.0445
   XZ=    -1.8959   YZ=     5.5464   ZZ=    34.6989
   Eigenvalues:    26.9204    29.9517    39.3264
 End of Minotr F.D. properties file   721 does not exist.
 End of Minotr F.D. properties file   722 does not exist.
 End of Minotr F.D. properties file   788 does not exist.
 Hyperfine terms turned off by default for NAtoms > 100.

 **********************************************************************

            Population analysis using the SCF Density.

 **********************************************************************

 Orbital symmetries:
       Occupied  (A) (A) (A) (A) (A) (A) (A) (A) (A) (A) (A) (A)
                 (A) (A) (A) (A) (A) (A) (A) (A) (A) (A) (A) (A)
                 (A) (A) (A) (A) (A) (A) (A) (A) (A) (A) (A) (A)
                 (A) (A) (A) (A) (A) (A) (A) (A) (A) (A) (A) (A)
                 (A) (A) (A) (A) (A) (A) (A) (A) (A) (A) (A) (A)
                 (A) (A) (A) (A) (A) (A) (A) (A) (A) (A) (A) (A)
                 (A) (A) (A) (A) (A) (A) (A) (A) (A) (A) (A) (A)
                 (A) (A) (A) (A) (A) (A) (A) (A) (A) (A) (A) (A)
                 (A) (A) (A) (A) (A) (A) (A) (A) (A) (A) (A) (A)
                 (A) (A) (A) (A) (A) (A) (A) (A) (A) (A) (A) (A)
                 (A) (A) (A) (A) (A) (A) (A) (A) (A) (A) (A) (A)
                 (A) (A) (A) (A) (A) (A) (A) (A) (A) (A) (A) (A)
                 (A) (A) (A) (A) (A) (A) (A) (A) (A) (A) (A) (A)
                 (A) (A) (A) (A) (A) (A) (A) (A) (A) (A) (A) (A)
                 (A) (A) (A) (A) (A) (A) (A) (A) (A) (A) (A) (A)
                 (A) (A) (A) (A) (A) (A) (A) (A) (A) (A) (A) (A)
                 (A) (A) (A) (A) (A)
       Virtual   (A) (A) (A) (A) (A) (A) (A) (A) (A) (A) (A) (A)
                 (A) (A) (A) (A) (A) (A) (A) (A) (A) (A) (A) (A)
                 (A) (A) (A) (A) (A) (A) (A) (A) (A) (A) (A) (A)
                 (A) (A) (A) (A) (A) (A) (A) (A) (A) (A) (A) (A)
                 (A) (A) (A) (A) (A) (A) (A) (A) (A) (A) (A) (A)
                 (A) (A) (A) (A) (A) (A) (A) (A) (A) (A) (A) (A)
                 (A) (A) (A) (A) (A) (A) (A) (A) (A) (A) (A) (A)
                 (A) (A) (A) (A) (A) (A) (A) (A) (A) (A) (A) (A)
                 (A) (A) (A) (A) (A) (A) (A) (A) (A) (A) (A) (A)
                 (A) (A) (A) (A) (A) (A) (A) (A) (A) (A) (A) (A)
                 (A) (A) (A) (A) (A) (A) (A) (A) (A)
 The electronic state is 1-A.
 Alpha  occ. eigenvalues --  -20.30821 -20.28387 -20.24805 -20.22399 -19.91947
 Alpha  occ. eigenvalues --  -15.47985 -15.33733 -15.33239 -15.31110 -11.16727
 Alpha  occ. eigenvalues --  -11.14614 -11.10716 -11.09670 -11.09469 -11.09118
 Alpha  occ. eigenvalues --  -11.09031 -11.08628 -11.08438 -11.08109 -11.07803
 Alpha  occ. eigenvalues --  -11.07449 -11.07404 -11.06646 -11.06535 -11.06208
 Alpha  occ. eigenvalues --  -11.06008 -11.05975 -11.05728 -11.05703 -11.05667
 Alpha  occ. eigenvalues --  -11.05488 -11.05010 -11.04679 -11.04556 -11.04515
 Alpha  occ. eigenvalues --  -11.04493 -11.04483 -11.04375 -11.04261 -11.04174
 Alpha  occ. eigenvalues --  -11.04027 -11.03870 -11.03405 -11.02971 -11.02237
 Alpha  occ. eigenvalues --  -11.02137 -11.02029 -11.01911 -11.01867 -11.01796
 Alpha  occ. eigenvalues --  -11.01748 -11.01655 -11.01473 -11.01339  -1.38041
 Alpha  occ. eigenvalues --   -1.35631  -1.29365  -1.27856  -1.25375  -1.21693
 Alpha  occ. eigenvalues --   -1.20641  -1.19233  -1.10297  -1.09948  -1.08939
 Alpha  occ. eigenvalues --   -1.07575  -1.05690  -1.05180  -1.02618  -1.01001
 Alpha  occ. eigenvalues --   -0.99277  -0.98608  -0.98548  -0.97408  -0.97113
 Alpha  occ. eigenvalues --   -0.96315  -0.95007  -0.94825  -0.94120  -0.92405
 Alpha  occ. eigenvalues --   -0.91832  -0.91537  -0.89549  -0.89225  -0.87909
 Alpha  occ. eigenvalues --   -0.86532  -0.84880  -0.82859  -0.82195  -0.80995
 Alpha  occ. eigenvalues --   -0.80235  -0.79935  -0.78113  -0.77993  -0.77593
 Alpha  occ. eigenvalues --   -0.77202  -0.74438  -0.74153  -0.72661  -0.72342
 Alpha  occ. eigenvalues --   -0.71413  -0.70296  -0.69681  -0.68171  -0.66195
 Alpha  occ. eigenvalues --   -0.65244  -0.64822  -0.64518  -0.63762  -0.62746
 Alpha  occ. eigenvalues --   -0.62510  -0.62302  -0.61533  -0.61344  -0.61159
 Alpha  occ. eigenvalues --   -0.60865  -0.60021  -0.59007  -0.58913  -0.58493
 Alpha  occ. eigenvalues --   -0.58353  -0.58131  -0.57640  -0.57617  -0.57357
 Alpha  occ. eigenvalues --   -0.57025  -0.56723  -0.56254  -0.55735  -0.55475
 Alpha  occ. eigenvalues --   -0.55000  -0.54852  -0.54690  -0.54400  -0.54210
 Alpha  occ. eigenvalues --   -0.54156  -0.54114  -0.53512  -0.52652  -0.51997
 Alpha  occ. eigenvalues --   -0.51617  -0.51196  -0.50946  -0.50670  -0.50134
 Alpha  occ. eigenvalues --   -0.50057  -0.49750  -0.49219  -0.48968  -0.48616
 Alpha  occ. eigenvalues --   -0.48407  -0.48191  -0.47839  -0.47339  -0.46934
 Alpha  occ. eigenvalues --   -0.46454  -0.46316  -0.45799  -0.45752  -0.45162
 Alpha  occ. eigenvalues --   -0.45087  -0.44746  -0.44667  -0.44295  -0.43864
 Alpha  occ. eigenvalues --   -0.43775  -0.43148  -0.43084  -0.42845  -0.42731
 Alpha  occ. eigenvalues --   -0.42347  -0.41913  -0.41564  -0.41327  -0.40825
 Alpha  occ. eigenvalues --   -0.40270  -0.39826  -0.38734  -0.38567  -0.38049
 Alpha  occ. eigenvalues --   -0.37701  -0.37162  -0.36764  -0.35350  -0.34366
 Alpha  occ. eigenvalues --   -0.33527  -0.32982  -0.32274  -0.31087  -0.30391
 Alpha  occ. eigenvalues --   -0.27523  -0.27010  -0.26535  -0.21284  -0.20232
 Alpha  occ. eigenvalues --   -0.15897  -0.15374
 Alpha virt. eigenvalues --    0.26620   0.26995   0.27449   0.29319   0.30240
 Alpha virt. eigenvalues --    0.32970   0.45856   0.47983   0.48028   0.49262
 Alpha virt. eigenvalues --    0.49487   0.49942   0.50416   0.51645   0.51961
 Alpha virt. eigenvalues --    0.53781   0.54730   0.55508   0.55756   0.55843
 Alpha virt. eigenvalues --    0.56818   0.57230   0.57572   0.58778   0.59044
 Alpha virt. eigenvalues --    0.59393   0.59576   0.59711   0.60384   0.60733
 Alpha virt. eigenvalues --    0.61231   0.61836   0.62179   0.62824   0.62846
 Alpha virt. eigenvalues --    0.63237   0.63556   0.63806   0.64204   0.64528
 Alpha virt. eigenvalues --    0.64622   0.64948   0.65113   0.65614   0.65881
 Alpha virt. eigenvalues --    0.66002   0.66603   0.66668   0.66765   0.66983
 Alpha virt. eigenvalues --    0.67461   0.67709   0.67758   0.68112   0.68404
 Alpha virt. eigenvalues --    0.68792   0.69027   0.69406   0.69549   0.69970
 Alpha virt. eigenvalues --    0.70207   0.70212   0.70490   0.70911   0.70968
 Alpha virt. eigenvalues --    0.71163   0.71473   0.71491   0.72017   0.72630
 Alpha virt. eigenvalues --    0.73011   0.73217   0.73440   0.73651   0.73690
 Alpha virt. eigenvalues --    0.73989   0.74390   0.74514   0.74741   0.74780
 Alpha virt. eigenvalues --    0.74980   0.75546   0.75639   0.76221   0.76252
 Alpha virt. eigenvalues --    0.76483   0.76648   0.76911   0.77247   0.77744
 Alpha virt. eigenvalues --    0.77999   0.78170   0.78522   0.78924   0.79283
 Alpha virt. eigenvalues --    0.79506   0.79943   0.80184   0.80586   0.80682
 Alpha virt. eigenvalues --    0.81066   0.81271   0.81621   0.81804   0.82271
 Alpha virt. eigenvalues --    0.82357   0.83811   0.84075   0.84375   0.84694
 Alpha virt. eigenvalues --    0.85851   0.86033   0.86344   0.87329   0.87536
 Alpha virt. eigenvalues --    0.88401   0.89189   0.90668   0.91334   0.94281
 Alpha virt. eigenvalues --    0.94730   0.95506   0.98042   1.01214   1.03472
 Alpha virt. eigenvalues --    1.10551   1.11398   1.15957   1.16162
          Condensed to atoms (all electrons):
 Mulliken charges:
               1
     1  C   -0.074779
     2  C    0.000758
     3  C   -0.061621
     4  C   -0.089347
     5  C    0.089129
     6  C   -0.013085
     7  N   -0.286574
     8  C    0.017774
     9  C    0.128260
    10  C    0.039685
    11  C   -0.114915
    12  C   -0.105462
    13  C    0.027957
    14  N   -0.291754
    15  C   -0.015679
    16  C   -0.108218
    17  C   -0.102058
    18  C   -0.105202
    19  C   -0.021232
    20  C   -0.110579
    21  C   -0.066434
    22  C    0.319757
    23  O   -0.277161
    24  O   -0.255262
    25  C   -0.055796
    26  C   -0.078874
    27  C   -0.109520
    28  C    0.001603
    29  C   -0.078518
    30  C   -0.061111
    31  C   -0.089728
    32  C    0.095298
    33  C   -0.012685
    34  N   -0.280612
    35  C    0.015161
    36  C    0.134505
    37  C    0.039147
    38  C   -0.116186
    39  C   -0.105904
    40  C    0.040318
    41  N   -0.081520
    42  C   -0.003453
    43  C   -0.096695
    44  C   -0.099596
    45  C   -0.098077
    46  C   -0.004648
    47  C   -0.098731
    48  C   -0.058621
    49  C    0.327047
    50  O   -0.275507
    51  O   -0.255881
    52  C   -0.054013
    53  C   -0.077650
    54  O   -0.461696
    55  H    0.061781
    56  H    0.056250
    57  H    0.058442
    58  H    0.055764
    59  H    0.051169
    60  H    0.054744
    61  H    0.048812
    62  H    0.050448
    63  H    0.052176
    64  H    0.059899
    65  H    0.054450
    66  H    0.051466
    67  H    0.050160
    68  H    0.052239
    69  H    0.064550
    70  H    0.062394
    71  H    0.055192
    72  H    0.053064
    73  H    0.067694
    74  H    0.051748
    75  H    0.065227
    76  H    0.074748
    77  H    0.072498
    78  H    0.077570
    79  H    0.055500
    80  H    0.072205
    81  H    0.076357
    82  H    0.057144
    83  H    0.058106
    84  H    0.053207
    85  H    0.056489
    86  H    0.060303
    87  H    0.057319
    88  H    0.055393
    89  H    0.048914
    90  H    0.048901
    91  H    0.052778
    92  H    0.083612
    93  H    0.057774
    94  H    0.080318
    95  H    0.057094
    96  H    0.057780
    97  H    0.048700
    98  H    0.067426
    99  H    0.095412
   100  H    0.089170
   101  H    0.056195
   102  H    0.101807
   103  H    0.044616
   104  H    0.061824
   105  H    0.078099
   106  H    0.067234
   107  H    0.074019
   108  H    0.075028
   109  H    0.072075
   110  H    0.054694
 Sum of Mulliken charges =  -0.00000
 Mulliken charges with hydrogens summed into heavy atoms:
               1
     1  C   -0.012997
     2  C    0.000758
     3  C   -0.005371
     4  C   -0.030905
     5  C    0.089129
     6  C   -0.013085
     7  N   -0.286574
     8  C    0.017774
     9  C    0.128260
    10  C    0.095449
    11  C   -0.009002
    12  C   -0.006202
    13  C    0.027957
    14  N   -0.291754
    15  C    0.096396
    16  C   -0.002302
    17  C    0.000340
    18  C    0.021742
    19  C    0.087025
    20  C    0.008863
    21  C   -0.001207
    22  C    0.319757
    23  O   -0.277161
    24  O   -0.255262
    25  C    0.169020
    26  C    0.125188
    27  C    0.005730
    28  C    0.001603
    29  C   -0.025311
    30  C   -0.004622
    31  C   -0.029425
    32  C    0.095298
    33  C   -0.012685
    34  N   -0.280612
    35  C    0.015161
    36  C    0.134505
    37  C    0.096466
    38  C   -0.011879
    39  C   -0.004224
    40  C    0.040318
    41  N   -0.081520
    42  C    0.137933
    43  C    0.040717
    44  C    0.006885
    45  C    0.064760
    46  C    0.140717
    47  C    0.047692
    48  C    0.003203
    49  C    0.327047
    50  O   -0.275507
    51  O   -0.255881
    52  C    0.165339
    53  C    0.124148
    54  O   -0.461696
 Electronic spatial extent (au):  <R**2>=          37262.6970
 Charge=             -0.0000 electrons
 Dipole moment (field-independent basis, Debye):
    X=             -5.9229    Y=             -0.3115    Z=              0.0936  Tot=              5.9318
 Quadrupole moment (field-independent basis, Debye-Ang):
   XX=           -309.9565   YY=           -299.1687   ZZ=           -289.7360
   XY=              1.9807   XZ=              6.3290   YZ=              8.3382
 Traceless Quadrupole moment (field-independent basis, Debye-Ang):
   XX=            -10.3361   YY=              0.4517   ZZ=              9.8844
   XY=              1.9807   XZ=              6.3290   YZ=              8.3382
 Octapole moment (field-independent basis, Debye-Ang**2):
  XXX=           -227.2599  YYY=             -5.0391  ZZZ=             48.9218  XYY=            -20.2589
  XXY=              1.3485  XXZ=             70.7588  XZZ=             28.5614  YZZ=              2.7211
  YYZ=             10.6322  XYZ=             -3.8180
 Hexadecapole moment (field-independent basis, Debye-Ang**3):
 XXXX=         -31833.7859 YYYY=          -9212.7483 ZZZZ=          -4526.3457 XXXY=           -244.3172
 XXXZ=             31.7984 YYYX=            -61.0812 YYYZ=             65.2042 ZZZX=           -329.2399
 ZZZY=            123.5213 XXYY=          -7095.7602 XXZZ=          -5907.7154 YYZZ=          -2373.0564
 XXYZ=            130.2065 YYXZ=             29.9640 ZZXY=            -68.3531
 N-N= 8.157402678588D+03 E-N=-2.169124835846D+04  KE= 2.279094902936D+03
 ******************************Gaussian NBO Version 3.1******************************
             N A T U R A L   A T O M I C   O R B I T A L   A N D
          N A T U R A L   B O N D   O R B I T A L   A N A L Y S I S
 ******************************Gaussian NBO Version 3.1******************************
       /RESON  / : Allow strongly delocalized NBO set
       /NLMO   / : Form Natural Localized Molecular Orbitals
       /NMR /    : Analyze NMR Sheilding Tensor 

 Analyzing the SCF density

 Job title: Pleiokomenine_C_2                                               

 Storage needed:    355564 in NPA,    438187 in NBO,   2133784 in NLMO ( 104796000 available)
 GSVD:  LWork=     -108884 too small for GESVD, short by      536270 words or      536270 for optimal perf.


 NATURAL POPULATIONS:  Natural atomic orbital occupancies 
                                                          
   NAO  Atom  No  lang   Type(AO)    Occupancy      Energy
 ----------------------------------------------------------
     1    C    1  S      Cor( 1S)     1.99993     -10.94394
     2    C    1  S      Val( 2S)     1.07821      -0.17489
     3    C    1  px     Val( 2p)     0.98642       0.11473
     4    C    1  py     Val( 2p)     0.98151       0.15897
     5    C    1  pz     Val( 2p)     1.01054       0.04994
 
     6    C    2  S      Cor( 1S)     1.99990     -10.95510
     7    C    2  S      Val( 2S)     1.07793      -0.18192
     8    C    2  px     Val( 2p)     0.95282       0.13137
     9    C    2  py     Val( 2p)     0.95901       0.17822
    10    C    2  pz     Val( 2p)     0.99541       0.06103
 
    11    C    3  S      Cor( 1S)     1.99994     -10.94681
    12    C    3  S      Val( 2S)     1.08389      -0.18130
    13    C    3  px     Val( 2p)     0.97938       0.12110
    14    C    3  py     Val( 2p)     0.97524       0.15900
    15    C    3  pz     Val( 2p)     0.99493       0.05647
 
    16    C    4  S      Cor( 1S)     1.99993     -10.94033
    17    C    4  S      Val( 2S)     1.07202      -0.17264
    18    C    4  px     Val( 2p)     1.00710       0.10799
    19    C    4  py     Val( 2p)     0.97240       0.16350
    20    C    4  pz     Val( 2p)     1.03459       0.04482
 
    21    C    5  S      Cor( 1S)     1.99985     -10.98725
    22    C    5  S      Val( 2S)     1.05883      -0.18334
    23    C    5  px     Val( 2p)     0.91611       0.12203
    24    C    5  py     Val( 2p)     0.97405       0.16099
    25    C    5  pz     Val( 2p)     0.93918       0.06051
 
    26    C    6  S      Cor( 1S)     1.99990     -10.94582
    27    C    6  S      Val( 2S)     1.08262      -0.18660
    28    C    6  px     Val( 2p)     0.98953       0.12563
    29    C    6  py     Val( 2p)     0.94967       0.15062
    30    C    6  pz     Val( 2p)     1.00270       0.06746
 
    31    N    7  S      Cor( 1S)     1.99998     -15.26966
    32    N    7  S      Val( 2S)     1.40382      -0.59481
    33    N    7  px     Val( 2p)     1.11855       0.00152
    34    N    7  py     Val( 2p)     1.06730       0.01413
    35    N    7  pz     Val( 2p)     1.68529      -0.22820
 
    36    C    8  S      Cor( 1S)     1.99996     -11.00844
    37    C    8  S      Val( 2S)     1.10888      -0.23366
    38    C    8  px     Val( 2p)     0.94261       0.09793
    39    C    8  py     Val( 2p)     0.95896       0.11234
    40    C    8  pz     Val( 2p)     0.97025       0.07965
 
    41    C    9  S      Cor( 1S)     1.99996     -11.05214
    42    C    9  S      Val( 2S)     1.11137      -0.25765
    43    C    9  px     Val( 2p)     0.95327       0.07934
    44    C    9  py     Val( 2p)     0.83873       0.12463
    45    C    9  pz     Val( 2p)     0.92506       0.08359
 
    46    C   10  S      Cor( 1S)     1.99993     -11.02094
    47    C   10  S      Val( 2S)     1.09740      -0.22327
    48    C   10  px     Val( 2p)     0.90089       0.11526
    49    C   10  py     Val( 2p)     0.93927       0.08039
    50    C   10  pz     Val( 2p)     0.98903       0.08350
 
    51    C   11  S      Cor( 1S)     1.99994     -10.98298
    52    C   11  S      Val( 2S)     1.10375      -0.21729
    53    C   11  px     Val( 2p)     1.01133       0.07897
    54    C   11  py     Val( 2p)     0.98715       0.08498
    55    C   11  pz     Val( 2p)     0.98302       0.08046
 
    56    C   12  S      Cor( 1S)     1.99996     -10.98142
    57    C   12  S      Val( 2S)     1.09164      -0.20378
    58    C   12  px     Val( 2p)     1.00706       0.08332
    59    C   12  py     Val( 2p)     0.97701       0.08554
    60    C   12  pz     Val( 2p)     0.99778       0.08723
 
    61    C   13  S      Cor( 1S)     1.99998     -11.00816
    62    C   13  S      Val( 2S)     1.10500      -0.23183
    63    C   13  px     Val( 2p)     0.94825       0.10170
    64    C   13  py     Val( 2p)     0.94992       0.10580
    65    C   13  pz     Val( 2p)     0.94652       0.09999
 
    66    N   14  S      Cor( 1S)     1.99999     -15.24428
    67    N   14  S      Val( 2S)     1.42876      -0.58895
    68    N   14  px     Val( 2p)     1.52347      -0.14945
    69    N   14  py     Val( 2p)     1.19193      -0.01350
    70    N   14  pz     Val( 2p)     1.13545       0.00689
 
    71    C   15  S      Cor( 1S)     1.99994     -11.01401
    72    C   15  S      Val( 2S)     1.06977      -0.19614
    73    C   15  px     Val( 2p)     0.98795       0.07896
    74    C   15  py     Val( 2p)     0.88858       0.11625
    75    C   15  pz     Val( 2p)     1.01571       0.06823
 
    76    C   16  S      Cor( 1S)     1.99997     -10.98158
    77    C   16  S      Val( 2S)     1.08103      -0.19496
    78    C   16  px     Val( 2p)     0.98198       0.08754
    79    C   16  py     Val( 2p)     0.99793       0.08468
    80    C   16  pz     Val( 2p)     1.01371       0.08507
 
    81    C   17  S      Cor( 1S)     1.99996     -10.98377
    82    C   17  S      Val( 2S)     1.08586      -0.19922
    83    C   17  px     Val( 2p)     0.99966       0.08511
    84    C   17  py     Val( 2p)     0.98164       0.08700
    85    C   17  pz     Val( 2p)     1.00130       0.08530
 
    86    C   18  S      Cor( 1S)     1.99995     -10.97834
    87    C   18  S      Val( 2S)     1.09220      -0.19888
    88    C   18  px     Val( 2p)     1.00726       0.08301
    89    C   18  py     Val( 2p)     0.98082       0.08665
    90    C   18  pz     Val( 2p)     0.99490       0.09571
 
    91    C   19  S      Cor( 1S)     1.99994     -11.00363
    92    C   19  S      Val( 2S)     1.07200      -0.18854
    93    C   19  px     Val( 2p)     1.02361       0.07813
    94    C   19  py     Val( 2p)     0.99190       0.07907
    95    C   19  pz     Val( 2p)     0.88044       0.12034
 
    96    C   20  S      Cor( 1S)     1.99992     -10.98752
    97    C   20  S      Val( 2S)     1.09979      -0.21543
    98    C   20  px     Val( 2p)     1.01886       0.07319
    99    C   20  py     Val( 2p)     0.96659       0.08946
   100    C   20  pz     Val( 2p)     0.98863       0.07874
 
   101    C   21  S      Cor( 1S)     1.99994     -11.01097
   102    C   21  S      Val( 2S)     1.11086      -0.24163
   103    C   21  px     Val( 2p)     1.01497       0.06302
   104    C   21  py     Val( 2p)     0.99069       0.06628
   105    C   21  pz     Val( 2p)     0.96788       0.07663
 
   106    C   22  S      Cor( 1S)     1.99991     -11.11434
   107    C   22  S      Val( 2S)     1.05470      -0.26313
   108    C   22  px     Val( 2p)     0.83842       0.04778
   109    C   22  py     Val( 2p)     0.79823       0.12384
   110    C   22  pz     Val( 2p)     0.90573       0.09669
 
   111    O   23  S      Cor( 1S)     1.99999     -20.10068
   112    O   23  S      Val( 2S)     1.80818      -1.06051
   113    O   23  px     Val( 2p)     1.31962      -0.13993
   114    O   23  py     Val( 2p)     1.43912      -0.16954
   115    O   23  pz     Val( 2p)     1.74443      -0.27844
 
   116    O   24  S      Cor( 1S)     1.99999     -20.21756
   117    O   24  S      Val( 2S)     1.73000      -1.03005
   118    O   24  px     Val( 2p)     1.72575      -0.32472
   119    O   24  py     Val( 2p)     1.56761      -0.25383
   120    O   24  pz     Val( 2p)     1.24348      -0.11233
 
   121    C   25  S      Cor( 1S)     1.99984     -11.04748
   122    C   25  S      Val( 2S)     1.07706      -0.22918
   123    C   25  px     Val( 2p)     1.03741       0.03781
   124    C   25  py     Val( 2p)     1.04230       0.03362
   125    C   25  pz     Val( 2p)     0.80875       0.08603
 
   126    C   26  S      Cor( 1S)     1.99992     -11.01688
   127    C   26  S      Val( 2S)     1.06528      -0.19726
   128    C   26  px     Val( 2p)     0.92328       0.08660
   129    C   26  py     Val( 2p)     0.99498       0.06378
   130    C   26  pz     Val( 2p)     1.03276       0.05968
 
   131    C   27  S      Cor( 1S)     1.99996     -10.98167
   132    C   27  S      Val( 2S)     1.08243      -0.18646
   133    C   27  px     Val( 2p)     0.98073       0.09728
   134    C   27  py     Val( 2p)     1.02706       0.08596
   135    C   27  pz     Val( 2p)     0.99601       0.09348
 
   136    C   28  S      Cor( 1S)     1.99990     -10.95437
   137    C   28  S      Val( 2S)     1.07770      -0.18145
   138    C   28  px     Val( 2p)     0.95576       0.12398
   139    C   28  py     Val( 2p)     0.96085       0.17209
   140    C   28  pz     Val( 2p)     0.99018       0.07725
 
   141    C   29  S      Cor( 1S)     1.99992     -10.94506
   142    C   29  S      Val( 2S)     1.07645      -0.17589
   143    C   29  px     Val( 2p)     1.00162       0.09697
   144    C   29  py     Val( 2p)     0.98144       0.14770
   145    C   29  pz     Val( 2p)     1.00336       0.07061
 
   146    C   30  S      Cor( 1S)     1.99994     -10.94574
   147    C   30  S      Val( 2S)     1.08380      -0.18010
   148    C   30  px     Val( 2p)     0.98226       0.11130
   149    C   30  py     Val( 2p)     0.97750       0.15327
   150    C   30  pz     Val( 2p)     0.98903       0.07615
 
   151    C   31  S      Cor( 1S)     1.99993     -10.93873
   152    C   31  S      Val( 2S)     1.07174      -0.17052
   153    C   31  px     Val( 2p)     1.00776       0.09918
   154    C   31  py     Val( 2p)     0.97906       0.15736
   155    C   31  pz     Val( 2p)     1.02937       0.06378
 
   156    C   32  S      Cor( 1S)     1.99985     -10.98765
   157    C   32  S      Val( 2S)     1.06060      -0.18390
   158    C   32  px     Val( 2p)     0.89816       0.11765
   159    C   32  py     Val( 2p)     0.97732       0.15465
   160    C   32  pz     Val( 2p)     0.94440       0.07927
 
   161    C   33  S      Cor( 1S)     1.99990     -10.94836
   162    C   33  S      Val( 2S)     1.08535      -0.19185
   163    C   33  px     Val( 2p)     0.98168       0.12065
   164    C   33  py     Val( 2p)     0.95463       0.13846
   165    C   33  pz     Val( 2p)     0.99966       0.08005
 
   166    N   34  S      Cor( 1S)     1.99998     -15.26471
   167    N   34  S      Val( 2S)     1.39688      -0.58530
   168    N   34  px     Val( 2p)     1.52991      -0.15667
   169    N   34  py     Val( 2p)     1.06617       0.02057
   170    N   34  pz     Val( 2p)     1.27783      -0.05758
 
   171    C   35  S      Cor( 1S)     1.99996     -11.01058
   172    C   35  S      Val( 2S)     1.10338      -0.23382
   173    C   35  px     Val( 2p)     0.98976       0.06086
   174    C   35  py     Val( 2p)     0.94626       0.11756
   175    C   35  pz     Val( 2p)     0.94977       0.10184
 
   176    C   36  S      Cor( 1S)     1.99996     -11.04758
   177    C   36  S      Val( 2S)     1.11537      -0.25473
   178    C   36  px     Val( 2p)     0.93389       0.08278
   179    C   36  py     Val( 2p)     0.83275       0.13625
   180    C   36  pz     Val( 2p)     0.93938       0.09271
 
   181    C   37  S      Cor( 1S)     1.99991     -11.03055
   182    C   37  S      Val( 2S)     1.10963      -0.24778
   183    C   37  px     Val( 2p)     0.95201       0.07872
   184    C   37  py     Val( 2p)     0.92930       0.07600
   185    C   37  pz     Val( 2p)     0.94078       0.07187
 
   186    C   38  S      Cor( 1S)     1.99993     -10.97611
   187    C   38  S      Val( 2S)     1.10912      -0.21518
   188    C   38  px     Val( 2p)     0.98670       0.08928
   189    C   38  py     Val( 2p)     0.98712       0.09195
   190    C   38  pz     Val( 2p)     1.00165       0.08312
 
   191    C   39  S      Cor( 1S)     1.99996     -10.97697
   192    C   39  S      Val( 2S)     1.09057      -0.19810
   193    C   39  px     Val( 2p)     0.99350       0.09279
   194    C   39  py     Val( 2p)     0.98105       0.08811
   195    C   39  pz     Val( 2p)     1.01022       0.08643
 
   196    C   40  S      Cor( 1S)     1.99998     -11.01022
   197    C   40  S      Val( 2S)     1.09893      -0.22456
   198    C   40  px     Val( 2p)     0.96373       0.09942
   199    C   40  py     Val( 2p)     0.94449       0.10697
   200    C   40  pz     Val( 2p)     0.93369       0.11012
 
   201    N   41  S      Cor( 1S)     1.99999     -15.41584
   202    N   41  S      Val( 2S)     1.39300      -0.65595
   203    N   41  px     Val( 2p)     1.24826      -0.12114
   204    N   41  py     Val( 2p)     1.14284      -0.09312
   205    N   41  pz     Val( 2p)     1.18311      -0.11914
 
   206    C   42  S      Cor( 1S)     1.99992     -11.03650
   207    C   42  S      Val( 2S)     1.09125      -0.23347
   208    C   42  px     Val( 2p)     0.95669       0.07528
   209    C   42  py     Val( 2p)     0.89542       0.07457
   210    C   42  pz     Val( 2p)     1.00685       0.05154
 
   211    C   43  S      Cor( 1S)     1.99995     -10.99021
   212    C   43  S      Val( 2S)     1.08703      -0.20392
   213    C   43  px     Val( 2p)     1.03673       0.07625
   214    C   43  py     Val( 2p)     0.99017       0.08284
   215    C   43  pz     Val( 2p)     0.94903       0.09754
 
   216    C   44  S      Cor( 1S)     1.99994     -10.98529
   217    C   44  S      Val( 2S)     1.09159      -0.20334
   218    C   44  px     Val( 2p)     1.00340       0.08556
   219    C   44  py     Val( 2p)     0.97587       0.09171
   220    C   44  pz     Val( 2p)     0.99214       0.08775
 
   221    C   45  S      Cor( 1S)     1.99993     -10.98411
   222    C   45  S      Val( 2S)     1.09819      -0.20631
   223    C   45  px     Val( 2p)     1.02647       0.08198
   224    C   45  py     Val( 2p)     0.98134       0.08923
   225    C   45  pz     Val( 2p)     0.96122       0.09077
 
   226    C   46  S      Cor( 1S)     1.99993     -11.03103
   227    C   46  S      Val( 2S)     1.09443      -0.23235
   228    C   46  px     Val( 2p)     1.01690       0.06152
   229    C   46  py     Val( 2p)     0.92837       0.06133
   230    C   46  pz     Val( 2p)     0.91427       0.08204
 
   231    C   47  S      Cor( 1S)     1.99991     -10.97210
   232    C   47  S      Val( 2S)     1.10325      -0.19978
   233    C   47  px     Val( 2p)     0.97526       0.10199
   234    C   47  py     Val( 2p)     0.97470       0.10657
   235    C   47  pz     Val( 2p)     1.00747       0.09926
 
   236    C   48  S      Cor( 1S)     1.99994     -11.00124
[...]
 NLMO      Total    Paramagnetic  Diamagnetic   Paramagnetic  Diamagnetic
   98      -0.1362        0.5654      -0.7016        -1.0417       0.9054
   99      -0.3986        0.1057      -0.5043        -1.2681       0.8695
  102       0.7919        2.2298      -1.4379        -0.1068       0.8987
  105       1.0305        1.2844      -0.2539        -0.1419       1.1725
  106      25.8344       -0.3447      26.1791         0.5879      25.2465
  107       1.9647        3.2709      -1.3063         0.1326       1.8321
  108       0.1018        1.0654      -0.9635        -0.9066       1.0084
  116      -0.2048       -1.3793       1.1745        -0.5321       0.3273
 Sum       28.9837        6.7976      22.1861        -3.2768      32.2605

 Contributions to Isotropic shielding for atom   95 (    32.2091 ppm):
                         Standard Origin              Atomic Origin
 NLMO      Total    Paramagnetic  Diamagnetic   Paramagnetic  Diamagnetic
  102       1.1863        0.9919       0.1943         0.2195       0.9668
  105       1.6261       -0.2565       1.8825         0.5187       1.1074
  106       1.8117        3.6637      -1.8520        -0.0288       1.8405
  107      26.2694        0.0561      26.2132         0.4347      25.8347
  109       0.0242        0.6021      -0.5779        -1.1034       1.1276
 Sum       30.9177        5.0574      25.8602         0.0407      30.8769

 Contributions to Isotropic shielding for atom   96 (    32.0843 ppm):
                         Standard Origin              Atomic Origin
 NLMO      Total    Paramagnetic  Diamagnetic   Paramagnetic  Diamagnetic
   97       1.0649        0.9127       0.1523         0.0952       0.9697
   98      -0.1890        0.7624      -0.9514        -1.1729       0.9840
  105       0.5075        2.8547      -2.3472        -0.5659       1.0735
  106       0.1648       -0.7424       0.9072        -0.9478       1.1126
  108      26.3142       -0.0502      26.3644         0.5493      25.7649
  109       2.3580        0.1495       2.2084         0.6297       1.7282
 Sum       30.2204        3.8868      26.3336        -1.4125      31.6329

 Contributions to Isotropic shielding for atom   97 (    32.4869 ppm):
                         Standard Origin              Atomic Origin
 NLMO      Total    Paramagnetic  Diamagnetic   Paramagnetic  Diamagnetic
   97       2.0248       -1.5824       3.6072         1.0688       0.9560
  102       0.2891       -1.2991       1.5882        -0.2424       0.5315
  105       1.1901       -0.1222       1.3123         0.0524       1.1377
  107      -0.0167       -1.6744       1.6577        -1.0412       1.0245
  108       1.8502        0.8252       1.0250         0.0091       1.8411
  109      26.2816        0.5486      25.7330         0.2516      26.0300
 Sum       31.6191       -3.3043      34.9234         0.0983      31.5208

 Contributions to Isotropic shielding for atom   98 (    32.5439 ppm):
                         Standard Origin              Atomic Origin
 NLMO      Total    Paramagnetic  Diamagnetic   Paramagnetic  Diamagnetic
   71      -1.1043        0.2814      -1.3857        -2.1154       1.0112
   80      -0.0527        1.2322      -1.2848        -1.1449       1.0922
   85       1.8393       -1.3969       3.2362         1.2065       0.6328
   89      -0.0941        0.1130      -0.2071        -1.0387       0.9446
  110       0.7020        1.0223      -0.3203        -0.1028       0.8048
  111      26.1120        0.1131      25.9989         0.6373      25.4747
  112       1.7342        3.2499      -1.5157        -0.1895       1.9237
  121       0.0485       -1.2815       1.3300        -0.7539       0.8024
  191      -0.3132        0.6872      -1.0005         0.3652      -0.6784
 Sum       28.8717        4.0207      24.8511        -3.1362      32.0079

 Contributions to Isotropic shielding for atom   99 (    31.2296 ppm):
                         Standard Origin              Atomic Origin
 NLMO      Total    Paramagnetic  Diamagnetic   Paramagnetic  Diamagnetic
   83      -0.3652        1.1819      -1.5470        -0.7562       0.3910
   85       1.0463       -0.0480       1.0944         0.2445       0.8019
   87      -0.2503        0.1256      -0.3758        -1.0880       0.8377
   89      -0.1987       -0.1135      -0.0852        -1.0834       0.8847
  100      -0.1727       -0.1745       0.0018        -1.0193       0.8466
  110       0.5910        1.9792      -1.3882        -0.1336       0.7246
  111       1.5966        2.9370      -1.3404        -0.3222       1.9187
  112      25.5821       -0.1916      25.7738         0.6856      24.8965
  113       0.0748        0.3487      -0.2739        -0.9264       1.0012
  118       0.6094       -0.9920       1.6014        -0.2208       0.8301
  120       1.2911       -0.4721       1.7632         0.4392       0.8520
  121      -0.2849       -3.1556       2.8708        -1.3233       1.0384
  123       0.3172       -0.8063       1.1236        -0.4400       0.7572
  124       0.0333       -1.5731       1.6064        -0.4202       0.4535
  191      -0.5736        1.3106      -1.8842         0.3929      -0.9665
  195       0.0328        0.0551      -0.0223         1.0536      -1.0209
 Sum       29.3293        0.4112      28.9181        -4.9175      34.2468

 Contributions to Isotropic shielding for atom  100 (    30.8612 ppm):
                         Standard Origin              Atomic Origin
 NLMO      Total    Paramagnetic  Diamagnetic   Paramagnetic  Diamagnetic
  100      -0.3784        1.1869      -1.5652        -1.1512       0.7728
  101      -0.0631        0.5653      -0.6285        -1.0842       1.0211
  110       0.3798        1.8620      -1.4822        -0.6057       0.9855
  112       0.1018        0.2535      -0.1517        -0.9313       1.0331
  113      25.9872        0.3655      25.6217         1.1066      24.8805
  114       1.7205        0.0916       1.6289         0.0326       1.6879
  195       0.3090       -0.9347       1.2437         1.1318      -0.8228
 Sum       28.0568        3.3901      24.6667        -1.5015      29.5582

 Contributions to Isotropic shielding for atom  101 (    31.4634 ppm):
                         Standard Origin              Atomic Origin
 NLMO      Total    Paramagnetic  Diamagnetic   Paramagnetic  Diamagnetic
   71      -0.1495       -0.1277      -0.0217        -1.2883       1.1388
   84      -0.2246        0.3990      -0.6236        -1.0441       0.8195
   85       0.3275       -0.7660       1.0935        -0.4561       0.7836
  100       1.8397       -1.7536       3.5933         1.3824       0.4573
  110       1.2723       -1.3905       2.6628         0.4354       0.8369
  113       1.1654        1.4511      -0.2857        -0.6745       1.8399
  114      26.3177        0.9255      25.3923         0.6161      25.7016
 Sum       30.5485       -1.2622      31.8107        -1.0291      31.5776

 Contributions to Isotropic shielding for atom  102 (    29.8310 ppm):
                         Standard Origin              Atomic Origin
 NLMO      Total    Paramagnetic  Diamagnetic   Paramagnetic  Diamagnetic
   87       0.3527       -0.7952       1.1479         0.2457       0.1069
   89      -0.3552        0.0726      -0.4278        -1.2530       0.8978
   97      -0.2700        1.3785      -1.6485        -1.0903       0.8204
   98       1.5475       -0.4495       1.9970         0.6365       0.9110
  106      -0.2041       -1.2056       1.0015        -0.7699       0.5658
  115       0.2016        2.5304      -2.3287        -0.6727       0.8743
  116      25.3480       -0.1611      25.5091         0.7036      24.6444
  117       1.5965        2.8799      -1.2834        -0.3220       1.9185
  118      -0.4179        0.1617      -0.5796        -1.3679       0.9500
  122       1.5467       -2.1849       3.7316         0.3367       1.2100
  124       0.1821       -1.2162       1.3982        -0.4636       0.6457
  126       0.1333       -1.1462       1.2795        -0.5460       0.6793
  193      -1.2958        1.1680      -2.4638         0.1120      -1.4078
  194      -0.3834       -1.3629       0.9795        -0.8323       0.4489
  195      -0.3099        0.7185      -1.0285         0.6561      -0.9660
 Sum       27.6721        0.3882      27.2839        -4.6271      32.2993

 Contributions to Isotropic shielding for atom  103 (    31.7942 ppm):
                         Standard Origin              Atomic Origin
 NLMO      Total    Paramagnetic  Diamagnetic   Paramagnetic  Diamagnetic
   86      -0.1015        0.3439      -0.4454        -1.0137       0.9122
   87       0.4395       -0.9388       1.3783         0.1592       0.2803
   94      -0.2509        1.1289      -1.3798        -1.2105       0.9595
   97      -0.1118        1.0275      -1.1394        -0.7201       0.6083
   98       1.9170       -1.0975       3.0145         0.9331       0.9839
  115       0.6909        1.8892      -1.1983        -0.4176       1.1085
  116       1.7124        2.8641      -1.1517        -0.3289       2.0413
  117      26.6407       -0.1455      26.7863         0.5430      26.0977
  118      -0.3022        0.8462      -1.1484        -0.3982       0.0960
  119      -0.1376       -1.0054       0.8677        -1.2770       1.1394
  122       0.8525       -1.2807       2.1333        -0.2650       1.1175
  193      -0.7023        0.4473      -1.1496         0.1543      -0.8566
 Sum       30.6466        4.0791      26.5675        -3.8414      34.4879

 Contributions to Isotropic shielding for atom  104 (    31.4281 ppm):
                         Standard Origin              Atomic Origin
 NLMO      Total    Paramagnetic  Diamagnetic   Paramagnetic  Diamagnetic
   81      -0.5418        1.2412      -1.7830        -1.2364       0.6946
   86      -0.2473        1.1812      -1.4285        -1.3760       1.1287
   87       1.8369       -0.3743       2.2112         0.9138       0.9232
   98       0.2642       -0.7720       1.0362         0.1738       0.0904
  115       1.5747        1.0846       0.4901         0.3037       1.2710
  117      -0.2447        0.2026      -0.4473        -1.3931       1.1485
  118       0.3635        4.8177      -4.4542        -0.7462       1.1097
  119      26.0080       -0.5430      26.5511         0.3061      25.7020
  121       0.5710       -0.7039       1.2749        -0.2551       0.8261
  122       0.6876       -1.5244       2.2120        -0.6534       1.3410
  124       0.1471       -0.8655       1.0126        -0.3078       0.4549
  125       0.1559       -0.9390       1.0949        -0.5004       0.6563
  128      -0.2598       -2.3385       2.0788        -0.7491       0.4894
 Sum       30.3154        0.4667      29.8487        -5.5203      35.8357

 Contributions to Isotropic shielding for atom  105 (    30.5307 ppm):
                         Standard Origin              Atomic Origin
 NLMO      Total    Paramagnetic  Diamagnetic   Paramagnetic  Diamagnetic
  120      -0.9997        0.8247      -1.8243        -1.9042       0.9045
  121      -0.5057        1.7263      -2.2319        -2.0498       1.5441
  122      -1.6475        1.6707      -3.3182        -2.5376       0.8901
  123       2.8168       -4.8287       7.6454         1.4131       1.4036
  124      26.1417        0.9866      25.1550         1.0431      25.0986
  125       1.0822        1.8605      -0.7784        -0.7817       1.8639
  126       1.4358        2.1932      -0.7574        -0.5998       2.0356
  191       0.4021       -1.2768       1.6789         1.1544      -0.7523
  193       1.0060       -0.1092       1.1152         1.0484      -0.0425
 Sum       29.7316        3.0473      26.6843        -3.2141      32.9456

 Contributions to Isotropic shielding for atom  106 (    30.5812 ppm):
                         Standard Origin              Atomic Origin
 NLMO      Total    Paramagnetic  Diamagnetic   Paramagnetic  Diamagnetic
  120      -1.3723        0.9253      -2.2976        -2.2610       0.8887
  121      -0.5570        2.2773      -2.8343        -2.1170       1.5600
  122      -2.0663        1.4628      -3.5290        -2.8410       0.7747
  123       1.4881       -0.3711       1.8592        -0.0163       1.5045
  124       1.3471        1.3792      -0.0321        -0.5238       1.8709
  125      26.6285        0.6778      25.9507         1.2602      25.3683
  126       1.1732        4.5323      -3.3591        -0.8574       2.0306
  191       0.6180       -1.7476       2.3655         1.3855      -0.7675
  192       0.8542        1.0673      -0.2131         1.1147      -0.2605
  193       1.5705       -1.1777       2.7482         1.6191      -0.0486
 Sum       29.6840        9.0256      20.6584        -3.2372      32.9211

 Contributions to Isotropic shielding for atom  107 (    30.6174 ppm):
                         Standard Origin              Atomic Origin
 NLMO      Total    Paramagnetic  Diamagnetic   Paramagnetic  Diamagnetic
  120      -0.6852        0.3660      -1.0512        -1.3137       0.6285
  121      -0.1390        1.1968      -1.3357        -1.1832       1.0442
  122      -0.6171        0.4839      -1.1011        -0.6592       0.0420
  123       1.1314        0.6401       0.4913        -0.9565       2.0880
  124       1.2058        1.5983      -0.3925        -0.7944       2.0002
  125       0.5644        3.9009      -3.3365        -1.4097       1.9741
  126      26.1172        0.3500      25.7672         0.8269      25.2903
  191       0.2635       -0.8223       1.0858         0.6397      -0.3763
  193       1.0753       -0.9946       2.0700         1.5438      -0.4685
  194       1.0549        0.4707       0.5842         0.7909       0.2640
 Sum       29.9711        7.1897      22.7814        -2.5154      32.4865

 Contributions to Isotropic shielding for atom  108 (    30.8502 ppm):
                         Standard Origin              Atomic Origin
 NLMO      Total    Paramagnetic  Diamagnetic   Paramagnetic  Diamagnetic
   75      -0.5425        0.6046      -1.1471        -1.2539       0.7114
   76      -0.8246        0.2020      -1.0266        -2.1778       1.3531
   79      -0.4556        0.7184      -1.1741        -1.0889       0.6333
   82       1.1484        0.4437       0.7047        -0.0622       1.2106
  127      25.9880        0.1131      25.8749         0.6899      25.2981
  128       1.5555        3.8057      -2.2501        -0.4131       1.9687
  129       1.7298        0.9013       0.8284        -0.0694       1.7992
 Sum       28.5990        6.7889      21.8101        -4.3754      32.9743

 Contributions to Isotropic shielding for atom  109 (    31.5445 ppm):
                         Standard Origin              Atomic Origin
 NLMO      Total    Paramagnetic  Diamagnetic   Paramagnetic  Diamagnetic
   76      -0.4443       -0.0491      -0.3952        -1.2847       0.8404
   81      -0.4010        0.8452      -1.2462        -1.1243       0.7233
   82       1.1966        0.0549       1.1417        -0.0142       1.2107
   87      -0.2203        0.9534      -1.1737        -1.1163       0.8960
  121       0.0453       -0.8202       0.8656        -1.0202       1.0655
  127       1.5160        3.8481      -2.3321        -0.4744       1.9903
  128      26.0632        0.1779      25.8853         0.6333      25.4299
  129       1.7514        0.5597       1.1917        -0.0615       1.8129
 Sum       29.5068        5.5698      23.9370        -4.4623      33.9690

 Contributions to Isotropic shielding for atom  110 (    32.0661 ppm):
                         Standard Origin              Atomic Origin
 NLMO      Total    Paramagnetic  Diamagnetic   Paramagnetic  Diamagnetic
   76      -0.6033       -0.2204      -0.3829        -1.7878       1.1845
   82       1.9803       -3.1021       5.0824         1.2082       0.7722
   86      -0.1988        0.6149      -0.8137        -1.2713       1.0725
   92      -0.0432        1.0096      -1.0528        -0.8881       0.8449
  127       1.8342        1.9139      -0.0798        -0.0672       1.9014
  128       1.8537        1.4256       0.4281        -0.0491       1.9028
  129      26.4357        0.8273      25.6084         0.7086      25.7271
 Sum       31.2585        2.4687      28.7898        -2.1468      33.4053
 
 1\1\GINC-PCSN02\SP\RHF\STO-3G\C45H56N4O5\ABENIDD\30-May-2024\0\\# nmr=
 giao hf/sto-3g pop=nbo geom=connectivity\\Pleiokomenine_C_2\\0,1\C,0,0
 .,0.,0.\C,0,1.4015,0.,0.\C,0,2.0887,1.2315,0.\C,0,1.3977,2.4522,-0.011
 3\C,0,0.0138,2.4414,-0.0134\C,0,-0.6673,1.214,0.0193\N,0,-0.8759,3.547
 9,-0.0404\C,0,-2.1431,1.4811,0.1689\C,0,-2.1548,2.9244,-0.4693\C,0,-3.
 1715,0.5956,-0.5481\C,0,-2.1641,2.7823,-2.0532\C,0,-3.4233,2.0512,-2.5
 386\C,0,-4.1901,1.5043,-1.3177\N,0,-3.7307,-0.2584,0.5064\C,0,-4.9699,
 -0.9374,0.1525\C,0,-6.0113,-0.0703,-0.5544\C,0,-5.4055,0.6703,-1.7468\
 C,0,-2.4617,1.3031,1.6741\C,0,-3.7641,0.517,1.7384\C,0,-4.645,2.7704,-
 0.514\C,0,-3.4491,3.693,-0.1504\C,0,-3.5761,4.276,1.2459\O,0,-4.322,3.
 8514,2.1198\O,0,-2.8012,5.3891,1.3754\C,0,-2.8363,5.9792,2.6746\C,0,-0
 .3836,4.7684,-0.6601\C,0,2.1612,-1.3082,0.0652\C,0,2.1137,-1.9481,1.43
 67\C,0,1.0025,-2.7161,1.8127\C,0,3.1579,-1.7366,2.3631\C,0,3.0999,-2.2
 608,3.6622\C,0,1.977,-2.9715,4.0423\C,0,0.9448,-3.2046,3.1063\N,0,1.64
 77,-3.4912,5.3249\C,0,-0.0982,-4.0711,3.7753\C,0,0.1697,-3.5669,5.2373
 \C,0,-1.5857,-3.9154,3.5095\C,0,-0.3964,-2.0615,5.4001\C,0,-1.8535,-1.
 9448,4.9456\C,0,-2.4057,-3.3539,4.6797\N,0,-2.0844,-5.2975,3.1177\C,0,
 -3.4118,-5.1306,2.4551\C,0,-4.3991,-4.5508,3.488\C,0,-3.8866,-3.2954,4
 .2309\C,0,0.2231,-5.5004,3.2525\C,0,-0.9522,-5.8126,2.3086\C,0,-2.1611
 ,-4.1425,6.0121\C,0,-0.6276,-4.3416,6.3112\C,0,-0.2178,-5.7847,6.565\O
 ,0,0.8835,-6.2647,6.33\O,0,-1.1957,-6.4449,7.2536\C,0,-0.9143,-7.8246,
 7.4805\C,0,2.316,-2.9411,6.4877\O,0,-2.2437,-6.1871,4.1518\H,0,-0.5648
 ,-0.9256,0.0329\H,0,3.1764,1.2467,0.0213\H,0,1.954,3.3825,-0.0044\H,0,
 -2.6785,-0.0693,-1.2704\H,0,-2.1218,3.7703,-2.5295\H,0,-1.279,2.2468,-
 2.4184\H,0,-4.0545,2.7372,-3.1176\H,0,-3.1386,1.2436,-3.2244\H,0,-4.71
 01,-1.7687,-0.5159\H,0,-5.415,-1.4064,1.0386\H,0,-6.8316,-0.7071,-0.90
 61\H,0,-6.4534,0.6388,0.1537\H,0,-5.1044,-0.0656,-2.5038\H,0,-6.1679,1
 .3049,-2.2141\H,0,-2.496,2.2323,2.2417\H,0,-1.6936,0.6943,2.1734\H,0,-
 3.7804,-0.1341,2.6183\H,0,-4.6291,1.1778,1.809\H,0,-5.2325,2.4949,0.36
 19\H,0,-5.3421,3.3536,-1.133\H,0,-3.5213,4.569,-0.8135\H,0,-2.5125,5.2
 599,3.4335\H,0,-3.8406,6.3532,2.8965\H,0,-2.1424,6.8242,2.6815\H,0,0.0
 345,4.5837,-1.6561\H,0,0.3887,5.23,-0.0356\H,0,-1.1889,5.5017,-0.7659\
 H,0,1.7503,-2.0023,-0.68\H,0,3.2055,-1.1547,-0.2362\H,0,0.202,-2.9127,
 1.1086\H,0,4.0235,-1.142,2.0783\H,0,3.9118,-2.0753,4.3554\H,0,-1.7309,
 -3.2922,2.6144\H,0,0.196,-1.3139,4.8587\H,0,-0.3209,-1.7579,6.4536\H,0
 ,-1.9059,-1.3293,4.0386\H,0,-2.4437,-1.4217,5.7079\H,0,-3.7246,-6.1219
 ,2.1107\H,0,-3.2764,-4.4688,1.5934\H,0,-4.6313,-5.3194,4.2357\H,0,-5.3
 464,-4.3156,2.989\H,0,-4.5362,-3.0885,5.0899\H,0,-4.0124,-2.4479,3.543
 9\H,0,1.1732,-5.6013,2.7152\H,0,0.2416,-6.2383,4.0536\H,0,-1.099,-6.88
 05,2.1231\H,0,-0.9196,-5.248,1.3714\H,0,-2.728,-5.075,6.0398\H,0,-2.58
 89,-3.5588,6.8407\H,0,-0.4345,-3.8689,7.2865\H,0,-0.7122,-8.3406,6.536
 3\H,0,-0.0716,-7.9322,8.1704\H,0,-1.7969,-8.2794,7.9387\H,0,3.3883,-3.
 1621,6.4566\H,0,1.9259,-3.3967,7.4031\H,0,2.1844,-1.8564,6.5633\\Versi
 on=ES64L-G16RevB.01\State=1-A\HF=-2300.2023651\RMSD=3.851e-09\Dipole=-
 0.6563006,1.8633637,-1.2424206\Quadrupole=-1.3297903,-5.7892488,7.1190
 391,3.9099037,4.4487712,6.4237728\PG=C01 [X(C45H56N4O5)]\\@


 IF AT FIRST YOU DON'T SUCCEED, TRY, TRY AGAIN.
 THEN GIVE UP;
 THERE'S NO USE BEING A DAMN FOOL ABOUT IT.

                                 -- W. C. FIELDS
 Job cpu time:       0 days  0 hours 11 minutes 55.0 seconds.
 Elapsed time:       0 days  0 hours  2 minutes  0.3 seconds.
 File lengths (MBytes):  RWF=     67 Int=      0 D2E=      0 Chk=     10 Scr=      1
 Normal termination of Gaussian 16 at Thu May 30 10:03:05 2024.
