 Entering Gaussian System, Link 0=g16
 Input=2_pleiokomenine_2a_c_22.gjf
 Output=2_pleiokomenine_2a_c_22.log
 Initial command:
 /opt/gaussian/g16/l1.exe "/data/abenidd/Elvis/pleiokomenine_C/NMR_HF/2a/2_pleiokomenine_2a_c_22/Gau-28075.inp" -scrdir="/data/abenidd/Elvis/pleiokomenine_C/NMR_HF/2a/2_pleiokomenine_2a_c_22/"
 Entering Link 1 = /opt/gaussian/g16/l1.exe PID=     28077.
  
 Copyright (c) 1988-2017, Gaussian, Inc.  All Rights Reserved.
  
 This is part of the Gaussian(R) 16 program.  It is based on
 the Gaussian(R) 09 system (copyright 2009, Gaussian, Inc.),
 the Gaussian(R) 03 system (copyright 2003, Gaussian, Inc.),
 the Gaussian(R) 98 system (copyright 1998, Gaussian, Inc.),
 the Gaussian(R) 94 system (copyright 1995, Gaussian, Inc.),
 the Gaussian 92(TM) system (copyright 1992, Gaussian, Inc.),
 the Gaussian 90(TM) system (copyright 1990, Gaussian, Inc.),
 the Gaussian 88(TM) system (copyright 1988, Gaussian, Inc.),
 the Gaussian 86(TM) system (copyright 1986, Carnegie Mellon
 University), and the Gaussian 82(TM) system (copyright 1983,
 Carnegie Mellon University). Gaussian is a federally registered
 trademark of Gaussian, Inc.
  
 This software contains proprietary and confidential information,
 including trade secrets, belonging to Gaussian, Inc.
  
 This software is provided under written license and may be
 used, copied, transmitted, or stored only in accord with that
 written license.
  
 The following legend is applicable only to US Government
 contracts under FAR:
  
                    RESTRICTED RIGHTS LEGEND
  
 Use, reproduction and disclosure by the US Government is
 subject to restrictions as set forth in subparagraphs (a)
 and (c) of the Commercial Computer Software - Restricted
 Rights clause in FAR 52.227-19.
  
 Gaussian, Inc.
 340 Quinnipiac St., Bldg. 40, Wallingford CT 06492
  
  
 ---------------------------------------------------------------
 Warning -- This program may not be used in any manner that
 competes with the business of Gaussian, Inc. or will provide
 assistance to any competitor of Gaussian, Inc.  The licensee
 of this program is prohibited from giving any competitor of
 Gaussian, Inc. access to this program.  By using this program,
 the user acknowledges that Gaussian, Inc. is engaged in the
 business of creating and licensing software in the field of
 computational chemistry and represents and warrants to the
 licensee that it is not a competitor of Gaussian, Inc. and that
 it will not use this program in any manner prohibited above.
 ---------------------------------------------------------------
  

 Cite this work as:
 Gaussian 16, Revision B.01,
 M. J. Frisch, G. W. Trucks, H. B. Schlegel, G. E. Scuseria, 
 M. A. Robb, J. R. Cheeseman, G. Scalmani, V. Barone, 
 G. A. Petersson, H. Nakatsuji, X. Li, M. Caricato, A. V. Marenich, 
 J. Bloino, B. G. Janesko, R. Gomperts, B. Mennucci, H. P. Hratchian, 
 J. V. Ortiz, A. F. Izmaylov, J. L. Sonnenberg, D. Williams-Young, 
 F. Ding, F. Lipparini, F. Egidi, J. Goings, B. Peng, A. Petrone, 
 T. Henderson, D. Ranasinghe, V. G. Zakrzewski, J. Gao, N. Rega, 
 G. Zheng, W. Liang, M. Hada, M. Ehara, K. Toyota, R. Fukuda, 
 J. Hasegawa, M. Ishida, T. Nakajima, Y. Honda, O. Kitao, H. Nakai, 
 T. Vreven, K. Throssell, J. A. Montgomery, Jr., J. E. Peralta, 
 F. Ogliaro, M. J. Bearpark, J. J. Heyd, E. N. Brothers, K. N. Kudin, 
 V. N. Staroverov, T. A. Keith, R. Kobayashi, J. Normand, 
 K. Raghavachari, A. P. Rendell, J. C. Burant, S. S. Iyengar, 
 J. Tomasi, M. Cossi, J. M. Millam, M. Klene, C. Adamo, R. Cammi, 
 J. W. Ochterski, R. L. Martin, K. Morokuma, O. Farkas, 
 J. B. Foresman, and D. J. Fox, Gaussian, Inc., Wallingford CT, 2016.
 
 ******************************************
 Gaussian 16:  ES64L-G16RevB.01 20-Dec-2017
                30-May-2024 
 ******************************************
 %nprocshared=8
 Will use up to    8 processors via shared memory.
 ----------------------------------------------
 # nmr=giao hf/sto-3g pop=nbo geom=connectivity
 ----------------------------------------------
 1/38=1,57=2,172=1/1;
 2/12=2,17=6,18=5,40=1/2;
 3/6=3,11=9,25=1,30=1/1,2,3,8;
 4//1;
 5/5=2,38=5/2;
 8/6=1,10=90,11=11/1;
 10/13=100,45=16/2;
 6/7=2,8=2,9=2,10=2,28=1,40=1,64=1/1,7;
 99/9=1/99;
 -----------------
 Pleiokomenine_C_2
 -----------------
 Symbolic Z-matrix:
 Charge =  0 Multiplicity = 1
 C                     0.        0.        0. 
 C                     1.4016    0.        0. 
 C                     2.0802    1.2375    0. 
 C                     1.3843    2.456    -0.0386 
 C                     0.0014    2.4394   -0.0839 
 C                    -0.6734    1.2101   -0.0469 
 N                    -0.893     3.539    -0.1777 
 C                    -2.1583    1.4644   -0.0086 
 C                    -2.1366    2.8943   -0.6775 
 C                    -3.119     0.5536   -0.788 
 C                    -2.0345    2.7216   -2.2564 
 C                    -3.2515    1.9737   -2.8152 
 C                    -4.0934    1.4374   -1.6408 
 N                    -3.7399   -0.2956    0.2344 
 C                    -4.9391   -0.9986   -0.2041 
 C                    -5.9431   -0.1513   -0.9844 
 C                    -5.2675    0.5842   -2.1411 
 C                    -2.5884    1.3073    1.4699 
 C                    -3.8758    0.4925    1.4505 
 C                    -4.6155    2.7103   -0.89 
 C                    -3.457     3.6552   -0.4658 
 C                    -3.6867    4.2674    0.9046 
 O                    -4.4915    3.8583    1.7323 
 O                    -2.9283    5.3881    1.0646 
 C                    -3.0628    6.0083    2.343 
 C                    -0.3747    4.753    -0.7894 
 C                     2.1867   -1.2952    0.0757 
 C                     1.6602   -2.3989   -0.8202 
 C                     0.7209   -3.3167   -0.3229 
 C                     2.0402   -2.4513   -2.1796 
 C                     1.5033   -3.4091   -3.0469 
 C                     0.5668   -4.2975   -2.5505 
 C                     0.167    -4.2342   -1.2003 
 N                    -0.0415   -5.3832   -3.2737 
 C                    -1.0181   -5.153    -1.0236 
 C                    -0.6372   -6.166    -2.1512 
 C                    -1.2448   -5.9541    0.2494 
 C                     0.6512   -7.0444   -1.6513 
 C                     0.4456   -7.6528   -0.2644 
 C                    -1.0238   -7.4703    0.1285 
 N                    -2.6704   -5.652     0.679 
 C                    -2.8219   -6.0723    2.1047 
 C                    -2.6111   -7.5965    2.1914 
 C                    -1.3181   -8.1005    1.511 
 C                    -2.2407   -4.1882   -1.0713 
 C                    -2.7843   -4.2044    0.3675 
 C                    -1.8296   -8.1086   -1.0508 
 C                    -1.6826   -7.2883   -2.3917 
 C                    -3.0497   -6.9396   -2.9718 
 O                    -3.3617   -5.8943   -3.5242 
 O                    -3.864    -8.04     -2.9369 
 C                    -5.188    -7.7975   -3.4098 
 C                    -0.8504   -4.8988   -4.3826 
 O                    -3.6469   -6.2814   -0.0536 
 H                    -0.5723   -0.9204    0.0443 
 H                     3.1677    1.2609    0.0309 
 H                     1.9369    3.3884   -0.0384 
 H                    -2.5654   -0.1123   -1.4642 
 H                    -1.9643    3.7005   -2.7479 
 H                    -1.1232    2.185    -2.5485 
 H                    -3.8479    2.6461   -3.4449 
 H                    -2.9148    1.1595   -3.4689 
 H                    -4.619    -1.8246   -0.8522 
 H                    -5.4365   -1.474     0.65 
 H                    -6.7307   -0.8016   -1.3832 
 H                    -6.439     0.5589   -0.3141 
 H                    -4.9076   -0.1559   -2.8678 
 H                    -6.0039    1.2044   -2.6658 
 H                    -1.8481    0.7263    2.0392 
 H                    -2.6869    2.2455    2.0141 
 H                    -3.9409   -0.1508    2.3346 
 H                    -4.7565    1.1366    1.452 
 H                    -5.2542    2.4402   -0.0489 
 H                    -5.2786    3.274    -1.5621 
 H                    -3.492     4.5154   -1.152 
 H                    -2.3762    6.8585    2.3807 
 H                    -2.7916    5.3097    3.1408 
 H                    -4.0828    6.3799    2.4813 
 H                     0.1026    4.556    -1.7559 
 H                     0.3563    5.2314   -0.1288 
 H                    -1.1779    5.4776   -0.9545 
 H                     3.2372   -1.1143   -0.1876 
 H                     2.1954   -1.6357    1.1193 
 H                     0.383    -3.2516    0.7063 
 H                     2.7574   -1.7321   -2.5704 
 H                     1.8261   -3.4598   -4.0806 
 H                    -0.6112   -5.545     1.0508 
 H                     1.5855   -6.4688   -1.6372 
 H                     0.8416   -7.8434   -2.3822 
 H                     0.7323   -8.7116   -0.2723 
 H                     1.1074   -7.159     0.4586 
 H                    -3.832    -5.7865    2.4162 
 H                    -2.0852   -5.5187    2.696 
 H                    -3.4646   -8.1059    1.7269 
 H                    -2.6099   -7.9016    3.2441 
 H                    -1.3497   -9.1938    1.4319 
 H                    -0.486    -7.8676    2.1894 
 H                    -2.0162   -3.1585   -1.3739 
 H                    -3.0178   -4.5399   -1.7455 
 H                    -3.8324   -3.9043    0.45 
 H                    -2.1565   -3.6531    1.0746 
 H                    -2.8706   -8.2838   -0.769 
 H                    -1.4398   -9.1208   -1.2345 
 H                    -1.2665   -7.9668   -3.1526 
 H                    -5.6551   -6.9783   -2.8537 
 H                    -5.1749   -7.5817   -4.4825 
 H                    -5.7773   -8.704    -3.2463 
 H                    -1.6345   -4.2081   -4.056 
 H                    -1.2982   -5.7421   -4.9163 
 H                    -0.2271   -4.3775   -5.1184 
 
 Stoichiometry    C45H56N4O5
 Framework group  C1[X(C45H56N4O5)]
 Deg. of freedom   324
 Full point group                 C1      NOp   1
 Largest Abelian subgroup         C1      NOp   1
 Largest concise Abelian subgroup C1      NOp   1
                         Standard orientation:                         
 ---------------------------------------------------------------------
 Center     Atomic      Atomic             Coordinates (Angstroms)
 Number     Number       Type             X           Y           Z
 ---------------------------------------------------------------------
      1          6           0       -1.870931    1.959846    0.532110
      2          6           0       -1.768435    3.355924    0.602423
      3          6           0       -2.942336    4.129615    0.478875
      4          6           0       -4.192916    3.534275    0.250557
      5          6           0       -4.271706    2.157337    0.138423
      6          6           0       -3.110475    1.386588    0.297769
      7          7           0       -5.412024    1.357110   -0.139392
      8          6           0       -3.475500   -0.073914    0.228833
      9          6           0       -4.800169    0.087613   -0.614775
     10          6           0       -2.543289   -1.071384   -0.475440
     11          6           0       -4.415421    0.239276   -2.151701
     12          6           0       -3.691869   -1.009502   -2.671052
     13          6           0       -3.376811   -1.937767   -1.481644
     14          7           0       -1.882821   -1.798115    0.614332
     15          6           0       -1.218096   -3.030463    0.209324
     16          6           0       -2.027179   -3.932133   -0.721899
     17          6           0       -2.553663   -3.154490   -1.927484
     18          6           0       -3.545025   -0.574295    1.691849
     19          6           0       -2.831034   -1.920212    1.711809
     20          6           0       -4.771727   -2.387496   -0.926200
     21          6           0       -5.676726   -1.176001   -0.568204
     22          6           0       -6.478068   -1.411641    0.699815
     23          8           0       -6.240711   -2.278935    1.531449
     24          8           0       -7.551581   -0.574138    0.753639
     25          6           0       -8.341837   -0.710614    1.934281
     26          6           0       -6.494398    1.993919   -0.873932
     27          6           0       -0.440351    4.032558    0.881734
     28          6           0        0.729573    3.457031    0.108405
     29          6           0        1.503269    2.428889    0.670782
     30          6           0        0.986990    3.886160   -1.212466
     31          6           0        2.008160    3.310649   -1.976566
     32          6           0        2.753111    2.287655   -1.418684
     33          6           0        2.484673    1.840036   -0.109308
     34          7           0        3.876666    1.625115   -2.027335
     35          6           0        3.283320    0.579899    0.123282
     36          6           0        4.460233    0.924697   -0.845596
     37          6           0        3.892277    0.239519    1.474946
     38          6           0        5.357540    2.118487   -0.173907
     39          6           0        5.762618    1.809758    1.267104
     40          6           0        5.423331    0.344737    1.559352
     41          7           0        3.433143   -1.173905    1.790516
     42          6           0        3.651126   -1.415450    3.248721
     43          6           0        5.162188   -1.329387    3.539281
     44          6           0        5.844052   -0.053887    2.994331
     45          6           0        2.246249   -0.559741   -0.108165
     46          6           0        2.034308   -1.160444    1.291887
     47          6           0        6.149757   -0.460805    0.432012
     48          6           0        5.524870   -0.195558   -0.993356
     49          6           0        5.156016   -1.506354   -1.680984
     50          8           0        4.171963   -1.712290   -2.376952
     51          8           0        6.179876   -2.405785   -1.547131
     52          6           0        5.905152   -3.686359   -2.112882
     53          6           0        3.483635    0.902344   -3.228064
     54          8           0        4.079856   -2.166767    1.095974
     55          1           0       -1.008571    1.315303    0.664493
     56          1           0       -2.889987    5.213434    0.561060
     57          1           0       -5.074402    4.158351    0.159740
     58          1           0       -1.755973   -0.545331   -1.032705
     59          1           0       -5.313841    0.406335   -2.759713
     60          1           0       -3.780031    1.116361   -2.327002
     61          1           0       -4.317920   -1.525063   -3.410372
     62          1           0       -2.776733   -0.712117   -3.198025
     63          1           0       -0.293239   -2.750770   -0.311431
     64          1           0       -0.896161   -3.597870    1.090974
     65          1           0       -1.389652   -4.751939   -1.073644
     66          1           0       -2.853303   -4.396977   -0.173225
     67          1           0       -1.700544   -2.825200   -2.535042
     68          1           0       -3.152076   -3.817853   -2.563168
     69          1           0       -2.990919    0.094253    2.366917
     70          1           0       -4.551019   -0.620212    2.106510
     71          1           0       -2.315406   -2.071495    2.666244
     72          1           0       -3.532460   -2.746617    1.587090
     73          1           0       -4.661406   -3.078903   -0.090660
     74          1           0       -5.289636   -2.976373   -1.697024
     75          1           0       -6.440011   -1.115262   -1.359244
     76          1           0       -9.137158    0.038930    1.897800
     77          1           0       -7.735652   -0.527814    2.827141
     78          1           0       -8.801922   -1.702810    1.972788
     79          1           0       -6.138293    2.492713   -1.782305
     80          1           0       -7.000350    2.733220   -0.243800
     81          1           0       -7.247955    1.257780   -1.170046
     82          1           0       -0.507946    5.103818    0.650574
     83          1           0       -0.239571    3.972280    1.959310
     84          1           0        1.279568    2.056001    1.665054
     85          1           0        0.379478    4.673097   -1.655196
     86          1           0        2.217109    3.669816   -2.977888
     87          1           0        3.429302    0.870656    2.248492
     88          1           0        4.854919    3.094011   -0.186369
     89          1           0        6.257048    2.274460   -0.786627
     90          1           0        6.831460    2.012000    1.408495
     91          1           0        5.228217    2.478835    1.953617
     92          1           0        3.253941   -2.411541    3.470222
     93          1           0        3.080305   -0.661738    3.800915
     94          1           0        5.664181   -2.201055    3.101206
     95          1           0        5.326229   -1.394705    4.620987
     96          1           0        6.933041   -0.168548    3.053617
     97          1           0        5.585892    0.766003    3.678431
     98          1           0        1.284176   -0.242587   -0.527783
     99          1           0        2.625340   -1.334403   -0.770216
    100          1           0        1.650160   -2.184030    1.282816
    101          1           0        1.442650   -0.520051    1.953621
    102          1           0        6.209991   -1.522897    0.681248
    103          1           0        7.203061   -0.145105    0.398495
    104          1           0        6.325668    0.195954   -1.639817
    105          1           0        4.988304   -4.109304   -1.689770
    106          1           0        5.833064   -3.613046   -3.202311
    107          1           0        6.736934   -4.351539   -1.865044
    108          1           0        2.700674    0.162742   -3.031831
    109          1           0        4.354477    0.411188   -3.671815
    110          1           0        3.110051    1.594015   -3.992057
 ---------------------------------------------------------------------
 Rotational constants (GHZ):           0.0992018           0.0319614           0.0291271
 Standard basis: STO-3G (5D, 7F)
 There are   326 symmetry adapted cartesian basis functions of A   symmetry.
 There are   326 symmetry adapted basis functions of A   symmetry.
   326 basis functions,   978 primitive gaussians,   326 cartesian basis functions
   197 alpha electrons      197 beta electrons
       nuclear repulsion energy      8136.3417546691 Hartrees.
 NAtoms=  110 NActive=  110 NUniq=  110 SFac= 1.00D+00 NAtFMM=   60 NAOKFM=T Big=T
 Integral buffers will be    131072 words long.
 Raffenetti 1 integral format.
 Two-electron integral symmetry is turned on.
 One-electron integrals computed using PRISM.
 NBasis=   326 RedAO= T EigKep=  1.72D-01  NBF=   326
 NBsUse=   326 1.00D-06 EigRej= -1.00D+00 NBFU=   326
 ExpMin= 1.69D-01 ExpMax= 1.31D+02 ExpMxC= 1.31D+02 IAcc=3 IRadAn=         5 AccDes= 0.00D+00
 Harris functional with IExCor=  205 and IRadAn=       5 diagonalized for initial guess.
 HarFok:  IExCor=  205 AccDes= 0.00D+00 IRadAn=         5 IDoV= 1 UseB2=F ITyADJ=14
 ICtDFT=  3500011 ScaDFX=  1.000000  1.000000  1.000000  1.000000
 FoFCou: FMM=F IPFlag=           0 FMFlag=      100000 FMFlg1=        2001
         NFxFlg=           0 DoJE=T BraDBF=F KetDBF=T FulRan=T
         wScrn=  0.000000 ICntrl=       500 IOpCl=  0 I1Cent=   200000004 NGrid=           0
         NMat0=    1 NMatS0=      1 NMatT0=    0 NMatD0=    1 NMtDS0=    0 NMtDT0=    0
 Petite list used in FoFCou.
 Requested convergence on RMS density matrix=1.00D-08 within 128 cycles.
 Requested convergence on MAX density matrix=1.00D-06.
 Requested convergence on             energy=1.00D-06.
 No special actions if energy rises.
 Integral accuracy reduced to 1.0D-05 until final iterations.
 Initial convergence to 1.0D-05 achieved.  Increase integral accuracy.
 SCF Done:  E(RHF) =  -2300.19512454     A.U. after   16 cycles
            NFock= 16  Conv=0.35D-08     -V/T= 2.0092
 Range of M.O.s used for correlation:     1   326
 NBasis=   326 NAE=   197 NBE=   197 NFC=     0 NFV=     0
 NROrb=    326 NOA=   197 NOB=   197 NVA=   129 NVB=   129
          Differentiating once with respect to magnetic field using GIAOs.
          Electric field/nuclear overlap derivatives assumed to be zero.
 FoFCou: FMM=F IPFlag=           0 FMFlag=      100000 FMFlg1=        2001
         NFxFlg=           0 DoJE=F BraDBF=F KetDBF=T FulRan=T
         wScrn=  0.000000 ICntrl=      6100 IOpCl=  0 I1Cent=           7 NGrid=         110
         NMat0=    1 NMatS0=      1 NMatT0=    0 NMatD0=    1 NMtDS0=    0 NMtDT0=    0
 Symmetry not used in FoFCou.
 FoFJK:  IHMeth= 1 ICntrl=    6127 DoSepK=F KAlg= 0 I1Cent=           0 FoldK=F
 IRaf=         1 NMat=       1 IRICut=       1 DoRegI=T DoRafI=F ISym2E= 0 IDoP0=0 IntGTp=1.
          There are     3 degrees of freedom in the 1st order CPHF.  IDoFFX=0 NUNeed=     3.
      3 vectors produced by pass  0 Test12= 8.47D-13 3.33D-08 XBig12= 1.86D+02 2.40D+00.
 AX will form     3 AO Fock derivatives at one time.
      3 vectors produced by pass  1 Test12= 8.47D-13 3.33D-08 XBig12= 8.44D-01 3.04D-01.
      3 vectors produced by pass  2 Test12= 8.47D-13 3.33D-08 XBig12= 1.97D-02 3.54D-02.
      3 vectors produced by pass  3 Test12= 8.47D-13 3.33D-08 XBig12= 3.92D-04 7.48D-03.
      3 vectors produced by pass  4 Test12= 8.47D-13 3.33D-08 XBig12= 1.45D-05 1.11D-03.
      3 vectors produced by pass  5 Test12= 8.47D-13 3.33D-08 XBig12= 2.68D-07 8.27D-05.
      3 vectors produced by pass  6 Test12= 8.47D-13 3.33D-08 XBig12= 1.09D-08 1.91D-05.
      3 vectors produced by pass  7 Test12= 8.47D-13 3.33D-08 XBig12= 3.41D-10 2.93D-06.
      3 vectors produced by pass  8 Test12= 8.47D-13 3.33D-08 XBig12= 5.55D-12 2.95D-07.
      2 vectors produced by pass  9 Test12= 8.47D-13 3.33D-08 XBig12= 1.01D-13 5.16D-08.
 InvSVY:  IOpt=1 It=  1 EMax= 1.78D-15
 Solved reduced A of dimension    29 with     3 vectors.
 Calculating GIAO nuclear magnetic shielding tensors.
 SCF GIAO Magnetic shielding tensor (ppm):
      1  C    Isotropic =   125.3591   Anisotropy =   152.0103
   XX=    71.4391   YX=    36.6036   ZX=   -25.3803
   XY=    41.7613   YY=    83.7088   ZY=     1.2795
   XZ=   -33.2329   YZ=     2.2545   ZZ=   220.9294
   Eigenvalues:    34.9048   114.4732   226.6993
      2  C    Isotropic =   120.7689   Anisotropy =   155.7316
   XX=    60.2251   YX=   -25.3502   ZX=   -28.8116
   XY=   -17.9389   YY=    84.1951   ZY=   -10.1843
   XZ=   -36.0637   YZ=   -11.2454   ZZ=   217.8865
   Eigenvalues:    41.1293    96.5874   224.5900
      3  C    Isotropic =   119.0779   Anisotropy =   149.5515
   XX=   113.2190   YX=    -3.8934   ZX=   -16.5514
   XY=    -5.3712   YY=    29.9831   ZY=   -13.4787
   XZ=   -22.6641   YZ=   -17.1153   ZZ=   214.0317
   Eigenvalues:    28.2528   110.2020   218.7789
      4  C    Isotropic =   133.6286   Anisotropy =   142.1127
   XX=    79.5836   YX=    36.9116   ZX=   -20.6985
   XY=    28.9024   YY=    96.2077   ZY=    -4.2453
   XZ=   -21.4767   YZ=     1.5954   ZZ=   225.0945
   Eigenvalues:    52.4805   120.0349   228.3704
      5  C    Isotropic =   109.2288   Anisotropy =   126.7261
   XX=    54.1577   YX=   -22.8682   ZX=   -27.9733
   XY=    -9.6403   YY=    84.9154   ZY=    -9.2246
   XZ=   -25.2320   YZ=    -0.4589   ZZ=   188.6134
   Eigenvalues:    42.3878    91.5858   193.7129
      6  C    Isotropic =   117.7450   Anisotropy =   138.6614
   XX=    94.5164   YX=     5.0724   ZX=   -16.2031
   XY=    -0.7476   YY=    50.3495   ZY=    -8.3649
   XZ=    -7.8070   YZ=   -10.2897   ZZ=   208.3690
   Eigenvalues:    49.7527    93.2963   210.1859
      7  N    Isotropic =   273.7398   Anisotropy =    81.7630
   XX=   277.1788   YX=    23.9897   ZX=    18.9631
   XY=    41.6951   YY=   284.2246   ZY=    32.9871
   XZ=    12.1749   YZ=    23.3719   ZZ=   259.8159
   Eigenvalues:   239.8128   253.1582   328.2484
      8  C    Isotropic =   196.2931   Anisotropy =    14.5885
   XX=   202.4083   YX=    -4.5613   ZX=    -4.2230
   XY=    -8.5475   YY=   194.1073   ZY=    -1.4694
   XZ=     0.3234   YZ=    -6.4114   ZZ=   192.3638
   Eigenvalues:   186.9410   195.9196   206.0188
      9  C    Isotropic =   181.1404   Anisotropy =    45.2515
   XX=   188.8486   YX=   -18.8868   ZX=    -2.9149
   XY=   -13.0582   YY=   197.5394   ZY=     6.0916
   XZ=     7.2964   YZ=    19.8506   ZZ=   157.0331
   Eigenvalues:   151.9018   180.2112   211.3080
     10  C    Isotropic =   190.2158   Anisotropy =    28.9981
   XX=   182.6379   YX=   -13.8365   ZX=     9.8157
   XY=    -9.8863   YY=   194.0787   ZY=    -7.3673
   XZ=     6.4950   YZ=    -8.6486   ZZ=   193.9307
   Eigenvalues:   174.7097   186.3898   209.5479
     11  C    Isotropic =   213.9087   Anisotropy =    18.6188
   XX=   207.5493   YX=     0.3411   ZX=    -6.4629
   XY=    -5.1677   YY=   209.1145   ZY=     0.3339
   XZ=    -3.2353   YZ=    -2.2281   ZZ=   225.0625
   Eigenvalues:   204.7702   210.6348   226.3213
     12  C    Isotropic =   213.0343   Anisotropy =    20.5607
   XX=   207.9673   YX=    -5.8937   ZX=     2.9652
   XY=    -5.0891   YY=   215.3033   ZY=   -10.5858
   XZ=     2.1692   YZ=    -8.2894   ZZ=   215.8324
   Eigenvalues:   204.1249   208.2366   226.7414
     13  C    Isotropic =   213.7901   Anisotropy =     7.8016
   XX=   214.3427   YX=     1.0536   ZX=    -6.2951
   XY=    -0.1575   YY=   213.1961   ZY=     1.6540
   XZ=    -2.6822   YZ=     3.5689   ZZ=   213.8316
   Eigenvalues:   208.5045   213.8747   218.9912
     14  N    Isotropic =   302.1531   Anisotropy =    52.3094
   XX=   295.6714   YX=   -47.4861   ZX=   -22.0607
   XY=   -29.6527   YY=   290.4137   ZY=   -26.5251
   XZ=   -12.1708   YZ=   -25.5812   ZZ=   320.3741
   Eigenvalues:   242.2533   327.1799   337.0260
     15  C    Isotropic =   205.3315   Anisotropy =    32.0191
   XX=   208.7978   YX=   -11.0420   ZX=    -0.0519
   XY=   -14.7090   YY=   214.3762   ZY=    11.8492
   XZ=     1.3666   YZ=     9.3458   ZZ=   192.8206
   Eigenvalues:   186.7877   202.5293   226.6776
     16  C    Isotropic =   224.4616   Anisotropy =     8.8013
   XX=   225.3714   YX=    -4.3474   ZX=     5.4167
   XY=     0.1579   YY=   223.9820   ZY=    -1.2690
   XZ=     4.9366   YZ=     1.2280   ZZ=   224.0314
   Eigenvalues:   219.0809   223.9747   230.3291
     17  C    Isotropic =   215.4897   Anisotropy =    19.1034
   XX=   216.6901   YX=    -7.1848   ZX=     0.4561
   XY=   -11.6799   YY=   220.2675   ZY=     0.9496
   XZ=    -2.5521   YZ=     1.6088   ZZ=   209.5116
   Eigenvalues:   208.8782   209.3656   228.2254
     18  C    Isotropic =   210.7189   Anisotropy =    36.3264
   XX=   190.9092   YX=    -3.4900   ZX=    -0.1721
   XY=    -9.5924   YY=   217.6331   ZY=   -11.4966
   XZ=     2.9422   YZ=   -15.2356   ZZ=   223.6144
   Eigenvalues:   189.2960   207.9242   234.9365
     19  C    Isotropic =   199.9590   Anisotropy =    42.5840
   XX=   199.2395   YX=   -10.9016   ZX=   -25.2715
   XY=   -13.6909   YY=   190.3276   ZY=    -4.4702
   XZ=   -19.1223   YZ=    -2.1979   ZZ=   210.3099
   Eigenvalues:   173.4859   198.0428   228.3483
     20  C    Isotropic =   212.2130   Anisotropy =    22.0440
   XX=   221.8815   YX=     1.5096   ZX=    -9.9391
   XY=    -0.0095   YY=   209.9806   ZY=     4.4459
   XZ=   -10.8068   YZ=     5.6570   ZZ=   204.7769
   Eigenvalues:   197.8952   211.8348   226.9090
     21  C    Isotropic =   209.1320   Anisotropy =    10.4409
   XX=   208.3035   YX=     2.8561   ZX=    -4.5075
   XY=     8.9595   YY=   209.3252   ZY=    -0.4419
   XZ=    -7.3135   YZ=     5.3051   ZZ=   209.7674
   Eigenvalues:   199.3292   211.9743   216.0926
     22  C    Isotropic =    96.4729   Anisotropy =    98.6048
   XX=    36.0231   YX=    40.6599   ZX=    82.3575
   XY=    50.8234   YY=   144.9973   ZY=   -36.3697
   XZ=    66.7565   YZ=   -22.6465   ZZ=   108.3985
   Eigenvalues:   -27.8083   155.0176   162.2095
     23  O    Isotropic =  -134.6748   Anisotropy =   887.6744
   XX=   -77.8801   YX=   319.4755   ZX=   176.3501
   XY=   333.5545   YY=  -125.1630   ZY=   381.1084
   XZ=   158.8674   YZ=   377.4866   ZZ=  -200.9814
   Eigenvalues:  -571.1808  -289.9518   457.1081
     24  O    Isotropic =   283.8805   Anisotropy =   140.1323
   XX=   338.8978   YX=    -1.4558   ZX=    31.6886
   XY=   -78.6173   YY=   335.3070   ZY=   121.7285
   XZ=   116.3087   YZ=    24.8867   ZZ=   177.4368
   Eigenvalues:   117.1366   357.2029   377.3021
     25  C    Isotropic =   197.3888   Anisotropy =    57.6628
   XX=   200.5829   YX=     2.2910   ZX=   -27.7703
   XY=     2.5758   YY=   177.8743   ZY=    -1.9616
   XZ=   -27.6865   YZ=    -2.6534   ZZ=   213.7091
   Eigenvalues:   177.4891   178.8466   235.8307
     26  C    Isotropic =   209.9316   Anisotropy =    41.8370
   XX=   223.1465   YX=   -12.9501   ZX=    12.9343
   XY=   -14.8069   YY=   202.9317   ZY=    -9.8223
   XZ=    12.3787   YZ=   -11.1773   ZZ=   203.7164
   Eigenvalues:   192.7101   199.2617   237.8229
     27  C    Isotropic =   206.5832   Anisotropy =    19.2573
   XX=   217.8999   YX=    -3.2973   ZX=    -6.9469
   XY=    -0.6698   YY=   204.4829   ZY=     5.6661
   XZ=    -1.6499   YZ=     5.2547   ZZ=   197.3668
   Eigenvalues:   194.0548   206.2735   219.4214
     28  C    Isotropic =   116.8588   Anisotropy =   166.0929
   XX=   110.2233   YX=    75.9044   ZX=    56.8079
   XY=    73.1941   YY=   146.4294   ZY=    31.8035
   XZ=    50.7372   YZ=    21.3026   ZZ=    93.9236
   Eigenvalues:    35.4031    87.5859   227.5874
     29  C    Isotropic =   126.5362   Anisotropy =   147.8157
   XX=   162.4928   YX=    37.3782   ZX=    49.6295
   XY=    36.0745   YY=   151.7193   ZY=    65.0421
   XZ=    38.3965   YZ=    46.6388   ZZ=    65.3966
   Eigenvalues:    33.0657   121.4630   225.0801
     30  C    Isotropic =   119.8406   Anisotropy =   155.2729
   XX=   124.0549   YX=    86.5538   ZX=    13.8065
   XY=    77.8888   YY=   125.2938   ZY=    50.5339
   XZ=     1.4706   YZ=    53.0217   ZZ=   110.1730
   Eigenvalues:    28.9223   107.2436   223.3558
     31  C    Isotropic =   128.2236   Anisotropy =   153.3817
   XX=   153.5597   YX=    48.2021   ZX=    46.3241
   XY=    44.4951   YY=   163.5004   ZY=    48.4189
   XZ=    35.5090   YZ=    50.7291   ZZ=    67.6106
   Eigenvalues:    42.1949   111.9977   230.4781
     32  C    Isotropic =   106.6861   Anisotropy =   127.2852
   XX=   111.7809   YX=    50.3573   ZX=    46.2128
   XY=    62.4129   YY=   120.4197   ZY=    20.6694
   XZ=    54.2264   YZ=     3.2609   ZZ=    87.8575
   Eigenvalues:    37.2672    91.2481   191.5429
     33  C    Isotropic =   113.3198   Anisotropy =   148.5465
   XX=   142.5035   YX=    67.4397   ZX=    27.2148
   XY=    77.2246   YY=   102.3247   ZY=    35.5218
   XZ=    20.0278   YZ=    39.4306   ZZ=    95.1314
   Eigenvalues:    41.6523    85.9564   212.3509
     34  N    Isotropic =   275.9043   Anisotropy =    77.7993
   XX=   291.3590   YX=   -37.8544   ZX=     8.9647
   XY=   -31.0374   YY=   294.9354   ZY=    25.3718
   XZ=     0.5607   YZ=    -7.1283   ZZ=   241.4184
   Eigenvalues:   236.9332   263.0092   327.7705
     35  C    Isotropic =   199.3498   Anisotropy =    11.8388
   XX=   191.3610   YX=     1.8282   ZX=    -6.0116
   XY=     0.0196   YY=   200.3617   ZY=    -6.5284
   XZ=    -1.5038   YZ=     6.1161   ZZ=   206.3268
   Eigenvalues:   190.3977   200.4095   207.2424
     36  C    Isotropic =   180.0371   Anisotropy =    35.5871
   XX=   178.3780   YX=   -16.0690   ZX=    -0.1189
   XY=    -2.4725   YY=   162.9148   ZY=    -9.5459
   XZ=     6.2293   YZ=   -14.4070   ZZ=   198.8186
   Eigenvalues:   156.3045   180.0450   203.7619
     37  C    Isotropic =   183.3145   Anisotropy =    42.9222
   XX=   176.1421   YX=    16.1799   ZX=     4.7278
   XY=    22.8034   YY=   199.5344   ZY=   -11.5813
   XZ=     9.6273   YZ=   -12.2906   ZZ=   174.2668
   Eigenvalues:   156.4374   181.5768   211.9293
     38  C    Isotropic =   206.5501   Anisotropy =    33.1698
   XX=   207.2749   YX=    10.9688   ZX=    12.3987
   XY=    14.9592   YY=   210.6104   ZY=     4.4054
   XZ=    12.3334   YZ=     8.9829   ZZ=   201.7648
   Eigenvalues:   191.1341   199.8528   228.6633
     39  C    Isotropic =   212.9180   Anisotropy =    19.3510
   XX=   204.5077   YX=     2.6484   ZX=    -1.4368
   XY=     2.6641   YY=   223.5897   ZY=    -3.4926
   XZ=     1.8268   YZ=    -7.2837   ZZ=   210.6564
   Eigenvalues:   203.9831   208.9522   225.8186
     40  C    Isotropic =   211.6324   Anisotropy =    11.9363
   XX=   211.8881   YX=    -1.8871   ZX=     5.8051
   XY=    -2.0530   YY=   208.7486   ZY=    -1.7856
   XZ=     6.2858   YZ=    -0.0362   ZZ=   214.2606
   Eigenvalues:   206.4657   208.8416   219.5900
     41  N    Isotropic =   235.1846   Anisotropy =    22.6234
   XX=   239.1612   YX=    -7.2293   ZX=    -7.8990
   XY=    -2.8492   YY=   244.1665   ZY=   -11.1894
   XZ=   -20.4354   YZ=    10.6639   ZZ=   222.2263
   Eigenvalues:   213.9406   241.3465   250.2669
     42  C    Isotropic =   193.7149   Anisotropy =    50.4652
   XX=   182.1077   YX=     1.2499   ZX=     9.4209
   XY=    -0.2218   YY=   174.5695   ZY=   -11.4669
   XZ=     5.3382   YZ=    -7.5757   ZZ=   224.4675
   Eigenvalues:   172.4251   181.3612   227.3584
     43  C    Isotropic =   219.3755   Anisotropy =    11.3703
   XX=   224.3192   YX=     3.6233   ZX=     4.0577
   XY=     5.2956   YY=   217.0746   ZY=    -6.5383
   XZ=     6.0951   YZ=    -8.5856   ZZ=   216.7328
   Eigenvalues:   206.7478   224.4231   226.9557
     44  C    Isotropic =   214.6702   Anisotropy =    22.3653
   XX=   206.9399   YX=     1.3186   ZX=     8.5185
   XY=     1.3124   YY=   212.3569   ZY=    -7.8160
   XZ=     4.9916   YZ=    -6.9529   ZZ=   224.7139
   Eigenvalues:   202.9550   211.4753   229.5804
     45  C    Isotropic =   207.0210   Anisotropy =    37.6282
   XX=   209.3451   YX=    20.8215   ZX=     4.8263
   XY=    20.5974   YY=   212.1471   ZY=   -12.7602
   XZ=    11.2142   YZ=   -13.3552   ZZ=   199.5709
   Eigenvalues:   179.1375   209.8191   232.1065
     46  C    Isotropic =   190.4180   Anisotropy =    58.2977
   XX=   220.9699   YX=     9.6433   ZX=    17.8948
   XY=     1.7096   YY=   172.1176   ZY=    -7.9608
   XZ=    23.2812   YZ=   -14.9033   ZZ=   178.1665
   Eigenvalues:   158.2136   183.7573   229.2831
     47  C    Isotropic =   210.8066   Anisotropy =    25.1739
   XX=   205.0671   YX=    -7.0801   ZX=     1.7085
   XY=    -6.7038   YY=   203.9422   ZY=     9.8550
   XZ=     2.4759   YZ=     9.9526   ZZ=   223.4105
   Eigenvalues:   194.7876   210.0430   227.5892
     48  C    Isotropic =   205.6004   Anisotropy =    14.8390
   XX=   202.2864   YX=    -2.3481   ZX=     0.4494
   XY=    -5.6160   YY=   212.5201   ZY=     5.5637
   XZ=    -2.0011   YZ=     3.7344   ZZ=   201.9948
   Eigenvalues:   199.8758   201.4324   215.4931
     49  C    Isotropic =    96.9544   Anisotropy =    95.1534
   XX=   133.5039   YX=    68.2299   ZX=    17.5963
   XY=    45.7265   YY=     4.0848   ZY=   -38.3029
   XZ=     8.3591   YZ=   -27.7053   ZZ=   153.2746
   Eigenvalues:   -24.4988   154.9721   160.3900
     50  O    Isotropic =  -117.5602   Anisotropy =   852.8692
   XX=  -301.2890   YX=   104.4604   ZX=  -391.5494
   XY=    94.1453   YY=  -175.9350   ZY=  -229.3547
   XZ=  -389.0938   YZ=  -219.3095   ZZ=   124.5433
   Eigenvalues:  -535.8797  -267.8202   451.0192
     51  O    Isotropic =   286.5530   Anisotropy =   143.9345
   XX=   332.0651   YX=  -140.6644   ZX=   -69.4685
   XY=   -28.0973   YY=   241.2376   ZY=   -50.5918
   XZ=   -36.2306   YZ=  -130.7027   ZZ=   286.3563
   Eigenvalues:   123.3062   353.8434   382.5093
     52  C    Isotropic =   197.5389   Anisotropy =    56.3004
   XX=   180.1978   YX=     5.1486   ZX=     1.3257
   XY=     5.5686   YY=   225.7894   ZY=    20.5122
   XZ=     0.4857   YZ=    20.5040   ZZ=   186.6294
   Eigenvalues:   177.2062   180.3380   235.0724
     53  C    Isotropic =   207.5602   Anisotropy =    41.0900
   XX=   192.7006   YX=     4.3131   ZX=     8.1021
   XY=     1.2503   YY=   205.4731   ZY=    17.4124
   XZ=     4.6847   YZ=    15.0752   ZZ=   224.5070
   Eigenvalues:   191.4430   196.2841   234.9535
     54  O    Isotropic =    77.0796   Anisotropy =   401.2008
   XX=    19.4154   YX=  -134.2159   ZX=   -79.7430
   XY=  -114.5904   YY=   181.2524   ZY=   143.0530
   XZ=   -78.6653   YZ=   165.6224   ZZ=    30.5710
   Eigenvalues:   -65.9066   -47.4014   344.5468
     55  H    Isotropic =    26.5259   Anisotropy =    17.0892
   XX=    33.2492   YX=     5.1596   ZX=    -0.1802
   XY=     7.0815   YY=    29.6637   ZY=    -0.4368
   XZ=     2.4298   YZ=     1.9030   ZZ=    16.6646
   Eigenvalues:    16.5793    25.0797    37.9186
     56  H    Isotropic =    25.7107   Anisotropy =     6.5986
   XX=    29.6318   YX=    -1.4333   ZX=     0.9175
   XY=    -0.7410   YY=    27.1012   ZY=     0.4384
   XZ=     1.1551   YZ=     0.2741   ZZ=    20.3992
   Eigenvalues:    20.2510    26.7714    30.1098
     57  H    Isotropic =    26.5591   Anisotropy =     7.9441
   XX=    28.0238   YX=     0.6226   ZX=     1.3295
   XY=     0.5479   YY=    31.4318   ZY=     1.6858
   XZ=     1.0200   YZ=     1.8363   ZZ=    20.2219
   Eigenvalues:    19.8109    28.0113    31.8552
     58  H    Isotropic =    32.1056   Anisotropy =    12.3844
   XX=    37.3743   YX=     3.9034   ZX=    -1.0208
   XY=     5.5391   YY=    31.4914   ZY=    -2.3866
   XZ=    -2.5402   YZ=    -0.1605   ZZ=    27.4513
   Eigenvalues:    27.0517    28.9033    40.3619
     59  H    Isotropic =    32.3109   Anisotropy =    13.8366
   XX=    33.1387   YX=    -5.4374   ZX=     5.1760
   XY=    -4.7220   YY=    28.6683   ZY=    -1.5147
   XZ=     6.7235   YZ=    -0.5569   ZZ=    35.1258
   Eigenvalues:    24.6334    30.7641    41.5354
     60  H    Isotropic =    33.2217   Anisotropy =     8.6208
   XX=    30.0217   YX=     3.2130   ZX=    -2.9466
   XY=     3.7036   YY=    36.4788   ZY=    -3.3564
   XZ=    -0.6167   YZ=    -0.2806   ZZ=    33.1646
   Eigenvalues:    28.3248    32.3715    38.9689
     61  H    Isotropic =    32.5057   Anisotropy =    15.2068
   XX=    29.4486   YX=     0.5529   ZX=     5.6570
   XY=     0.5442   YY=    29.3602   ZY=     4.1434
   XZ=     5.5659   YZ=     4.4541   ZZ=    38.7082
   Eigenvalues:    26.0077    28.8658    42.6435
     62  H    Isotropic =    32.8663   Anisotropy =    12.6919
   XX=    34.1154   YX=     0.9676   ZX=    -6.1316
   XY=     1.4928   YY=    29.1142   ZY=    -2.7577
   XZ=    -6.0370   YZ=    -1.4623   ZZ=    35.3692
   Eigenvalues:    28.1447    29.1265    41.3275
     63  H    Isotropic =    32.1255   Anisotropy =    17.4207
   XX=    43.1982   YX=     3.2340   ZX=    -1.6310
   XY=     1.6145   YY=    28.1901   ZY=     1.3431
   XZ=    -2.3334   YZ=     1.7378   ZZ=    24.9882
   Eigenvalues:    23.9660    28.6712    43.7393
     64  H    Isotropic =    32.0033   Anisotropy =    13.3573
   XX=    31.9310   YX=    -3.2161   ZX=     5.1904
   XY=    -4.3198   YY=    32.1307   ZY=    -4.6966
   XZ=     5.3414   YZ=    -3.8825   ZZ=    31.9482
   Eigenvalues:    26.6195    28.4823    40.9082
     65  H    Isotropic =    32.7153   Anisotropy =    16.9835
   XX=    31.3198   YX=    -6.9532   ZX=    -0.6972
   XY=    -6.6346   YY=    39.2311   ZY=     3.8147
   XZ=    -0.7800   YZ=     4.1838   ZZ=    27.5950
   Eigenvalues:    25.6900    28.4182    44.0376
     66  H    Isotropic =    32.6687   Anisotropy =    11.6309
   XX=    32.9679   YX=     4.0022   ZX=    -2.8482
   XY=     3.5568   YY=    36.2551   ZY=    -3.4886
   XZ=    -2.8408   YZ=    -3.3762   ZZ=    28.7831
   Eigenvalues:    27.0341    30.5494    40.4226
     67  H    Isotropic =    32.8315   Anisotropy =    12.2092
   XX=    35.2074   YX=    -0.8254   ZX=    -6.0772
   XY=    -0.9400   YY=    29.0066   ZY=     0.0270
   XZ=    -6.2305   YZ=     0.4712   ZZ=    34.2804
   Eigenvalues:    28.3041    29.2193    40.9709
     68  H    Isotropic =    32.6090   Anisotropy =    15.0164
   XX=    29.6489   YX=     1.5788   ZX=     4.3119
   XY=     1.1917   YY=    34.8389   ZY=     7.4369
   XZ=     3.7312   YZ=     7.3660   ZZ=    33.3390
   Eigenvalues:    25.4027    29.8042    42.6199
     69  H    Isotropic =    32.5308   Anisotropy =    10.5978
   XX=    28.4068   YX=     2.3247   ZX=     3.0363
   XY=     2.6570   YY=    33.3271   ZY=     4.5411
   XZ=     4.4143   YZ=     1.3553   ZZ=    35.8585
   Eigenvalues:    26.6119    31.3845    39.5960
     70  H    Isotropic =    32.9989   Anisotropy =    12.0364
   XX=    38.5316   YX=    -0.1509   ZX=    -4.6587
   XY=     0.7238   YY=    26.8783   ZY=    -0.4227
   XZ=    -3.8516   YZ=    -1.6917   ZZ=    33.5868
   Eigenvalues:    26.7014    31.2722    41.0232
     71  H    Isotropic =    32.0018   Anisotropy =    14.5256
   XX=    29.2935   YX=    -2.0658   ZX=     2.4946
   XY=    -1.9083   YY=    27.5398   ZY=    -3.7370
   XZ=     4.8193   YZ=    -3.9972   ZZ=    39.1719
   Eigenvalues:    26.0320    28.2877    41.6855
     72  H    Isotropic =    32.0291   Anisotropy =     9.8323
   XX=    32.3360   YX=     3.8933   ZX=    -2.0561
   XY=     4.1045   YY=    33.7969   ZY=    -2.6405
   XZ=    -1.4844   YZ=    -3.6037   ZZ=    29.9544
   Eigenvalues:    28.1116    29.3918    38.5839
     73  H    Isotropic =    31.4796   Anisotropy =     9.3123
   XX=    30.7764   YX=     1.1298   ZX=    -1.1818
   XY=    -0.0705   YY=    33.7268   ZY=    -5.1119
   XZ=    -1.2771   YZ=    -5.5689   ZZ=    29.9356
   Eigenvalues:    26.0584    30.6926    37.6878
     74  H    Isotropic =    32.3100   Anisotropy =    14.9564
   XX=    33.4253   YX=     4.5669   ZX=     4.0780
   XY=     3.9083   YY=    33.8790   ZY=     6.6170
   XZ=     3.5118   YZ=     6.5203   ZZ=    29.6257
   Eigenvalues:    24.7955    29.8536    42.2810
     75  H    Isotropic =    31.2844   Anisotropy =    12.8522
   XX=    37.2675   YX=    -0.6664   ZX=     4.9975
   XY=     0.0016   YY=    26.7326   ZY=     1.8407
   XZ=     5.1635   YZ=     0.3305   ZZ=    29.8529
   Eigenvalues:    25.8498    28.1508    39.8525
     76  H    Isotropic =    30.5639   Anisotropy =    12.2280
   XX=    35.2838   YX=    -4.9728   ZX=    -2.8020
   XY=    -4.5582   YY=    29.5583   ZY=     0.1152
   XZ=    -3.6038   YZ=     0.4884   ZZ=    26.8496
   Eigenvalues:    25.1609    27.8149    38.7159
     77  H    Isotropic =    30.6714   Anisotropy =     7.7437
   XX=    30.3612   YX=     0.7656   ZX=     0.1262
   XY=     0.3403   YY=    26.0247   ZY=     1.2732
   XZ=    -0.8663   YZ=     1.4545   ZZ=    35.6285
   Eigenvalues:    25.7567    30.4237    35.8339
     78  H    Isotropic =    30.5986   Anisotropy =    11.7191
   XX=    32.7651   YX=     4.3409   ZX=    -3.1543
   XY=     5.2497   YY=    32.0500   ZY=    -1.7860
   XZ=    -3.3583   YZ=    -2.0342   ZZ=    26.9807
   Eigenvalues:    25.5034    27.8811    38.4113
     79  H    Isotropic =    31.9516   Anisotropy =    11.6130
   XX=    29.6529   YX=    -2.6133   ZX=     0.7547
   XY=    -2.4145   YY=    32.3705   ZY=    -5.8350
   XZ=     2.8694   YZ=    -5.4315   ZZ=    33.8316
   Eigenvalues:    27.1429    29.0184    39.6937
     80  H    Isotropic =    30.7621   Anisotropy =    14.7301
   XX=    33.5340   YX=    -6.2538   ZX=    -2.3958
   XY=    -6.2247   YY=    33.5183   ZY=     2.8808
   XZ=    -1.6224   YZ=     3.1045   ZZ=    25.2340
   Eigenvalues:    24.2660    27.4381    40.5821
     81  H    Isotropic =    30.9382   Anisotropy =    10.9730
   XX=    36.9681   YX=     1.2839   ZX=     3.3716
   XY=     0.7897   YY=    30.6311   ZY=    -0.5295
   XZ=     4.4330   YZ=    -0.0770   ZZ=    25.2155
   Eigenvalues:    23.9850    30.5761    38.2535
     82  H    Isotropic =    29.7940   Anisotropy =    12.6662
   XX=    28.3262   YX=    -1.1658   ZX=    -0.4803
   XY=    -2.8094   YY=    37.8189   ZY=    -0.6497
   XZ=    -2.0544   YZ=    -0.9661   ZZ=    23.2369
   Eigenvalues:    22.8321    28.3118    38.2382
     83  H    Isotropic =    30.2197   Anisotropy =     8.8324
   XX=    28.3425   YX=    -1.5138   ZX=     1.5765
   XY=    -2.1267   YY=    27.5394   ZY=     2.2884
   XZ=     3.8109   YZ=     2.5669   ZZ=    34.7773
   Eigenvalues:    24.7858    29.7654    36.1080
     84  H    Isotropic =    25.9840   Anisotropy =    11.8126
   XX=    29.4817   YX=    -6.0210   ZX=    -0.1982
   XY=    -5.3712   YY=    26.3910   ZY=     1.0877
   XZ=     0.0629   YZ=     0.3559   ZZ=    22.0791
   Eigenvalues:    21.5146    22.5783    33.8590
     85  H    Isotropic =    25.9535   Anisotropy =     6.5329
   XX=    25.6520   YX=    -1.5198   ZX=    -3.0926
   XY=    -1.6637   YY=    25.3525   ZY=    -2.1602
   XZ=    -4.4883   YZ=    -2.9772   ZZ=    26.8562
   Eigenvalues:    20.6284    26.9234    30.3088
     86  H    Isotropic =    26.0628   Anisotropy =     7.5477
   XX=    25.1410   YX=    -4.5552   ZX=    -0.3246
   XY=    -3.9285   YY=    27.1197   ZY=    -3.0552
   XZ=    -1.6619   YZ=    -2.7259   ZZ=    25.9279
   Eigenvalues:    20.4912    26.6028    31.0946
     87  H    Isotropic =    31.6347   Anisotropy =     5.6901
   XX=    31.4160   YX=    -3.4115   ZX=    -0.9273
   XY=    -2.4972   YY=    30.5258   ZY=     2.5849
   XZ=    -1.0598   YZ=     0.8724   ZZ=    32.9623
   Eigenvalues:    27.8856    31.5903    35.4281
     88  H    Isotropic =    32.4850   Anisotropy =     9.5750
   XX=    31.9722   YX=    -2.2485   ZX=     2.6293
   XY=     1.8756   YY=    38.7261   ZY=    -1.3504
   XZ=     4.2295   YZ=    -0.8538   ZZ=    26.7567
   Eigenvalues:    24.9964    33.5903    38.8683
     89  H    Isotropic =    31.4626   Anisotropy =    14.8266
   XX=    35.7115   YX=     5.2973   ZX=    -4.3740
   XY=     6.8804   YY=    28.9146   ZY=    -3.2092
   XZ=    -3.1689   YZ=    -3.2071   ZZ=    29.7616
   Eigenvalues:    25.0943    27.9464    41.3470
     90  H    Isotropic =    32.1238   Anisotropy =    16.4058
   XX=    38.8358   YX=     6.0468   ZX=     3.8161
   XY=     6.9530   YY=    29.4198   ZY=     0.3673
   XZ=     4.0327   YZ=     0.3891   ZZ=    28.1159
   Eigenvalues:    25.1424    28.1681    43.0610
     91  H    Isotropic =    32.8622   Anisotropy =    12.0307
   XX=    29.1603   YX=    -2.1211   ZX=     0.0059
   XY=     0.0820   YY=    36.2251   ZY=     6.4690
   XZ=     0.2103   YZ=     5.3975   ZZ=    33.2012
   Eigenvalues:    28.0956    29.6083    40.8827
     92  H    Isotropic =    30.8154   Anisotropy =    13.2379
   XX=    29.1262   YX=     4.4654   ZX=    -0.3997
   XY=     4.2921   YY=    33.1426   ZY=    -5.8718
   XZ=     0.2001   YZ=    -7.3465   ZZ=    30.1774
   Eigenvalues:    23.4383    29.3673    39.6407
     93  H    Isotropic =    31.9280   Anisotropy =    10.3300
   XX=    32.1234   YX=    -2.3662   ZX=    -3.1769
   XY=    -2.5267   YY=    27.0020   ZY=     0.9433
   XZ=    -3.3651   YZ=     1.5972   ZZ=    36.6586
   Eigenvalues:    26.0210    30.9483    38.8147
     94  H    Isotropic =    31.0833   Anisotropy =    12.5224
   XX=    30.3990   YX=    -6.0302   ZX=     0.1382
   XY=    -5.9430   YY=    35.3583   ZY=    -0.6995
   XZ=     0.8326   YZ=    -0.8991   ZZ=    27.4927
   Eigenvalues:    26.3973    27.4211    39.4316
     95  H    Isotropic =    32.2596   Anisotropy =    17.7590
   XX=    28.4751   YX=     0.1061   ZX=     3.8991
   XY=     0.2293   YY=    26.5197   ZY=    -4.1722
   XZ=     4.8646   YZ=    -4.6600   ZZ=    41.7841
   Eigenvalues:    24.7290    27.9510    44.0990
     96  H    Isotropic =    32.0435   Anisotropy =    15.5796
   XX=    40.4366   YX=    -0.0906   ZX=     4.6963
   XY=     0.0953   YY=    25.5979   ZY=    -1.9034
   XZ=     5.1307   YZ=    -1.9733   ZZ=    30.0959
   Eigenvalues:    24.6404    29.0601    42.4298
     97  H    Isotropic =    32.5839   Anisotropy =    12.8706
   XX=    26.7095   YX=     0.6433   ZX=     1.5619
   XY=     1.4384   YY=    33.5509   ZY=     5.1361
   XZ=     2.0272   YZ=     4.8052   ZZ=    37.4914
   Eigenvalues:    26.4076    30.1799    41.1643
     98  H    Isotropic =    32.5899   Anisotropy =    14.6520
   XX=    40.7186   YX=     3.5316   ZX=     4.9364
   XY=     1.1924   YY=    30.4696   ZY=    -2.7244
   XZ=     4.1247   YZ=     0.1792   ZZ=    26.5814
   Eigenvalues:    24.6235    30.7882    42.3578
     99  H    Isotropic =    31.0862   Anisotropy =     9.2831
   XX=    30.2551   YX=     0.9606   ZX=    -1.5644
   XY=     1.1371   YY=    31.4523   ZY=     4.6601
   XZ=    -3.0079   YZ=     6.6460   ZZ=    31.5512
   Eigenvalues:    24.8171    31.1666    37.2749
    100  H    Isotropic =    30.7063   Anisotropy =    16.0031
   XX=    35.2141   YX=     8.6235   ZX=     2.0928
   XY=     6.0389   YY=    32.6261   ZY=    -2.0570
   XZ=     1.6766   YZ=    -1.1375   ZZ=    24.2786
   Eigenvalues:    22.6992    28.0446    41.3750
    101  H    Isotropic =    31.2726   Anisotropy =    12.3545
   XX=    38.6048   YX=    -1.3093   ZX=    -3.6572
   XY=    -1.9824   YY=    26.9433   ZY=    -0.1294
   XZ=    -1.9001   YZ=     0.1783   ZZ=    28.2698
   Eigenvalues:    26.5948    27.7142    39.5090
    102  H    Isotropic =    30.1196   Anisotropy =    10.2447
   XX=    26.7652   YX=    -4.7699   ZX=    -1.6910
   XY=    -5.2090   YY=    34.4966   ZY=    -0.4478
   XZ=     0.1664   YZ=     0.2120   ZZ=    29.0970
   Eigenvalues:    24.2082    29.2013    36.9494
    103  H    Isotropic =    31.5406   Anisotropy =    14.9703
   XX=    41.5078   YX=    -0.6814   ZX=    -0.6190
   XY=    -0.0060   YY=    25.2118   ZY=     0.8400
   XZ=     0.0925   YZ=     0.8507   ZZ=    27.9024
   Eigenvalues:    24.9642    28.1369    41.5208
    104  H    Isotropic =    31.0284   Anisotropy =    13.6432
   XX=    34.7351   YX=     0.8714   ZX=    -6.3308
   XY=     0.7360   YY=    27.1880   ZY=    -0.4072
   XZ=    -7.2579   YZ=    -2.0670   ZZ=    31.1622
   Eigenvalues:    25.7410    27.2204    40.1239
    105  H    Isotropic =    30.5603   Anisotropy =     7.1933
   XX=    31.4506   YX=     3.2708   ZX=    -3.1260
   XY=     1.9746   YY=    33.2955   ZY=     0.7717
   XZ=    -2.6727   YZ=     0.3853   ZZ=    26.9346
   Eigenvalues:    25.1490    31.1760    35.3558
    106  H    Isotropic =    30.6293   Anisotropy =    10.7961
   XX=    26.7690   YX=    -1.2916   ZX=    -0.3874
   XY=    -1.6887   YY=    29.0092   ZY=     3.5550
   XZ=    -1.2078   YZ=     3.7929   ZZ=    36.1097
   Eigenvalues:    25.8978    28.1634    37.8267
    107  H    Isotropic =    30.6356   Anisotropy =    12.8838
   XX=    31.4838   YX=    -5.8642   ZX=     0.3506
   XY=    -6.9090   YY=    33.9357   ZY=     0.5297
   XZ=     0.1017   YZ=     0.8504   ZZ=    26.4872
   Eigenvalues:    25.7128    26.9691    39.2248
    108  H    Isotropic =    31.5740   Anisotropy =     9.2490
   XX=    30.6600   YX=     6.1675   ZX=     2.4185
   XY=     4.1442   YY=    31.9248   ZY=     2.1044
   XZ=     1.1000   YZ=     1.8584   ZZ=    32.1372
   Eigenvalues:    26.0979    30.8841    37.7400
    109  H    Isotropic =    31.7516   Anisotropy =    11.6657
   XX=    30.4440   YX=    -3.3761   ZX=    -3.3943
   XY=    -5.6024   YY=    28.5829   ZY=     3.4442
   XZ=    -3.7862   YZ=     1.1130   ZZ=    36.2279
   Eigenvalues:    24.9022    30.8239    39.5288
    110  H    Isotropic =    31.1448   Anisotropy =    14.0891
   XX=    26.2957   YX=    -2.7341   ZX=     3.7335
   XY=    -3.5357   YY=    28.8324   ZY=    -2.8205
   XZ=     1.6569   YZ=    -4.7015   ZZ=    38.3062
   Eigenvalues:    24.1807    28.7161    40.5375
 End of Minotr F.D. properties file   721 does not exist.
 End of Minotr F.D. properties file   722 does not exist.
 End of Minotr F.D. properties file   788 does not exist.
 Hyperfine terms turned off by default for NAtoms > 100.

 **********************************************************************

            Population analysis using the SCF Density.

 **********************************************************************

 Orbital symmetries:
       Occupied  (A) (A) (A) (A) (A) (A) (A) (A) (A) (A) (A) (A)
                 (A) (A) (A) (A) (A) (A) (A) (A) (A) (A) (A) (A)
                 (A) (A) (A) (A) (A) (A) (A) (A) (A) (A) (A) (A)
                 (A) (A) (A) (A) (A) (A) (A) (A) (A) (A) (A) (A)
                 (A) (A) (A) (A) (A) (A) (A) (A) (A) (A) (A) (A)
                 (A) (A) (A) (A) (A) (A) (A) (A) (A) (A) (A) (A)
                 (A) (A) (A) (A) (A) (A) (A) (A) (A) (A) (A) (A)
                 (A) (A) (A) (A) (A) (A) (A) (A) (A) (A) (A) (A)
                 (A) (A) (A) (A) (A) (A) (A) (A) (A) (A) (A) (A)
                 (A) (A) (A) (A) (A) (A) (A) (A) (A) (A) (A) (A)
                 (A) (A) (A) (A) (A) (A) (A) (A) (A) (A) (A) (A)
                 (A) (A) (A) (A) (A) (A) (A) (A) (A) (A) (A) (A)
                 (A) (A) (A) (A) (A) (A) (A) (A) (A) (A) (A) (A)
                 (A) (A) (A) (A) (A) (A) (A) (A) (A) (A) (A) (A)
                 (A) (A) (A) (A) (A) (A) (A) (A) (A) (A) (A) (A)
                 (A) (A) (A) (A) (A) (A) (A) (A) (A) (A) (A) (A)
                 (A) (A) (A) (A) (A)
       Virtual   (A) (A) (A) (A) (A) (A) (A) (A) (A) (A) (A) (A)
                 (A) (A) (A) (A) (A) (A) (A) (A) (A) (A) (A) (A)
                 (A) (A) (A) (A) (A) (A) (A) (A) (A) (A) (A) (A)
                 (A) (A) (A) (A) (A) (A) (A) (A) (A) (A) (A) (A)
                 (A) (A) (A) (A) (A) (A) (A) (A) (A) (A) (A) (A)
                 (A) (A) (A) (A) (A) (A) (A) (A) (A) (A) (A) (A)
                 (A) (A) (A) (A) (A) (A) (A) (A) (A) (A) (A) (A)
                 (A) (A) (A) (A) (A) (A) (A) (A) (A) (A) (A) (A)
                 (A) (A) (A) (A) (A) (A) (A) (A) (A) (A) (A) (A)
                 (A) (A) (A) (A) (A) (A) (A) (A) (A) (A) (A) (A)
                 (A) (A) (A) (A) (A) (A) (A) (A) (A)
 The electronic state is 1-A.
 Alpha  occ. eigenvalues --  -20.30617 -20.28753 -20.24601 -20.22787 -19.92206
 Alpha  occ. eigenvalues --  -15.48174 -15.33576 -15.32511 -15.30651 -11.16506
 Alpha  occ. eigenvalues --  -11.15182 -11.10552 -11.09671 -11.09407 -11.09024
 Alpha  occ. eigenvalues --  -11.08993 -11.08727 -11.08690 -11.07924 -11.07046
 Alpha  occ. eigenvalues --  -11.06765 -11.06427 -11.06392 -11.06194 -11.06189
 Alpha  occ. eigenvalues --  -11.06098 -11.05814 -11.05685 -11.05605 -11.05289
 Alpha  occ. eigenvalues --  -11.05198 -11.04933 -11.04760 -11.04701 -11.04602
 Alpha  occ. eigenvalues --  -11.04347 -11.04027 -11.03883 -11.03852 -11.03795
 Alpha  occ. eigenvalues --  -11.03746 -11.03711 -11.03190 -11.03094 -11.02827
 Alpha  occ. eigenvalues --  -11.02288 -11.02258 -11.02254 -11.02056 -11.01956
 Alpha  occ. eigenvalues --  -11.01814 -11.01752 -11.01465 -11.01367  -1.37843
 Alpha  occ. eigenvalues --   -1.36090  -1.29532  -1.27648  -1.25974  -1.21432
 Alpha  occ. eigenvalues --   -1.20149  -1.18856  -1.10336  -1.09660  -1.08950
 Alpha  occ. eigenvalues --   -1.07499  -1.05811  -1.04851  -1.02788  -1.00811
 Alpha  occ. eigenvalues --   -0.99089  -0.98591  -0.98342  -0.97501  -0.96769
 Alpha  occ. eigenvalues --   -0.96324  -0.95083  -0.94484  -0.93977  -0.92427
 Alpha  occ. eigenvalues --   -0.91637  -0.91517  -0.89466  -0.89039  -0.87833
 Alpha  occ. eigenvalues --   -0.86335  -0.84472  -0.82685  -0.81883  -0.80769
 Alpha  occ. eigenvalues --   -0.80440  -0.79589  -0.78132  -0.77659  -0.77256
 Alpha  occ. eigenvalues --   -0.77188  -0.74303  -0.74134  -0.72933  -0.72239
 Alpha  occ. eigenvalues --   -0.71210  -0.70301  -0.69343  -0.68318  -0.65905
 Alpha  occ. eigenvalues --   -0.65098  -0.64811  -0.64326  -0.63608  -0.63059
 Alpha  occ. eigenvalues --   -0.62304  -0.62181  -0.61347  -0.61220  -0.61065
 Alpha  occ. eigenvalues --   -0.60616  -0.59655  -0.59015  -0.58667  -0.58505
 Alpha  occ. eigenvalues --   -0.58195  -0.57990  -0.57827  -0.57409  -0.57327
 Alpha  occ. eigenvalues --   -0.56762  -0.56667  -0.55964  -0.55577  -0.55526
 Alpha  occ. eigenvalues --   -0.55094  -0.54790  -0.54576  -0.54550  -0.54063
 Alpha  occ. eigenvalues --   -0.53762  -0.53467  -0.53224  -0.52332  -0.51866
 Alpha  occ. eigenvalues --   -0.51705  -0.51303  -0.50974  -0.50824  -0.50213
 Alpha  occ. eigenvalues --   -0.49845  -0.49660  -0.49156  -0.48711  -0.48461
 Alpha  occ. eigenvalues --   -0.48131  -0.47840  -0.47546  -0.47255  -0.46773
 Alpha  occ. eigenvalues --   -0.46514  -0.46152  -0.45832  -0.45579  -0.45213
 Alpha  occ. eigenvalues --   -0.44877  -0.44679  -0.44422  -0.44098  -0.43723
 Alpha  occ. eigenvalues --   -0.43439  -0.43207  -0.43043  -0.42529  -0.42309
 Alpha  occ. eigenvalues --   -0.42028  -0.41938  -0.41341  -0.40724  -0.40545
 Alpha  occ. eigenvalues --   -0.40330  -0.40052  -0.38661  -0.38385  -0.38006
 Alpha  occ. eigenvalues --   -0.37351  -0.37216  -0.36466  -0.35612  -0.34209
 Alpha  occ. eigenvalues --   -0.33312  -0.32156  -0.31755  -0.31449  -0.30879
 Alpha  occ. eigenvalues --   -0.27235  -0.27201  -0.26253  -0.22189  -0.20874
 Alpha  occ. eigenvalues --   -0.16174  -0.15685
 Alpha virt. eigenvalues --    0.26629   0.26810   0.27409   0.28476   0.30467
 Alpha virt. eigenvalues --    0.32516   0.45636   0.47861   0.48308   0.48903
 Alpha virt. eigenvalues --    0.49672   0.50042   0.50275   0.51131   0.52230
 Alpha virt. eigenvalues --    0.54177   0.54484   0.54717   0.55607   0.55686
 Alpha virt. eigenvalues --    0.57082   0.57136   0.57917   0.58202   0.58912
 Alpha virt. eigenvalues --    0.59544   0.59873   0.60056   0.60306   0.61079
 Alpha virt. eigenvalues --    0.61621   0.62271   0.62429   0.63086   0.63249
 Alpha virt. eigenvalues --    0.63295   0.63632   0.64219   0.64476   0.64535
 Alpha virt. eigenvalues --    0.64779   0.64946   0.65357   0.65756   0.66161
 Alpha virt. eigenvalues --    0.66340   0.66578   0.66934   0.67143   0.67505
 Alpha virt. eigenvalues --    0.67660   0.67720   0.67959   0.68108   0.68459
 Alpha virt. eigenvalues --    0.68938   0.69165   0.69574   0.69799   0.70325
 Alpha virt. eigenvalues --    0.70484   0.70615   0.70924   0.71133   0.71147
 Alpha virt. eigenvalues --    0.71334   0.71480   0.71786   0.72278   0.72444
 Alpha virt. eigenvalues --    0.72606   0.72980   0.73542   0.73597   0.73718
 Alpha virt. eigenvalues --    0.74055   0.74132   0.74614   0.74759   0.75045
 Alpha virt. eigenvalues --    0.75241   0.75373   0.75921   0.76068   0.76216
 Alpha virt. eigenvalues --    0.76621   0.76867   0.77144   0.77382   0.77648
 Alpha virt. eigenvalues --    0.78084   0.78129   0.78647   0.79153   0.79198
 Alpha virt. eigenvalues --    0.79438   0.79952   0.80150   0.80671   0.80853
 Alpha virt. eigenvalues --    0.81083   0.81362   0.81440   0.81597   0.82103
 Alpha virt. eigenvalues --    0.82427   0.83915   0.84164   0.84396   0.84525
 Alpha virt. eigenvalues --    0.85970   0.86189   0.86338   0.87009   0.87534
 Alpha virt. eigenvalues --    0.88162   0.89354   0.90675   0.91543   0.92920
 Alpha virt. eigenvalues --    0.94334   0.95331   0.97419   1.01428   1.03252
 Alpha virt. eigenvalues --    1.10444   1.11378   1.15296   1.16007
          Condensed to atoms (all electrons):
 Mulliken charges:
               1
     1  C   -0.075307
     2  C   -0.000882
     3  C   -0.061731
     4  C   -0.089951
     5  C    0.089185
     6  C   -0.012549
     7  N   -0.286000
     8  C    0.017701
     9  C    0.127871
    10  C    0.039936
    11  C   -0.114970
    12  C   -0.105524
    13  C    0.027930
    14  N   -0.291652
    15  C   -0.016573
    16  C   -0.108134
    17  C   -0.102235
    18  C   -0.105507
    19  C   -0.020142
    20  C   -0.110488
    21  C   -0.066479
    22  C    0.319612
    23  O   -0.276965
    24  O   -0.255460
    25  C   -0.055805
    26  C   -0.079259
    27  C   -0.110017
    28  C    0.008255
    29  C   -0.081188
    30  C   -0.065436
    31  C   -0.077488
    32  C    0.082460
    33  C   -0.012464
    34  N   -0.281991
    35  C    0.006643
    36  C    0.124315
    37  C    0.041557
    38  C   -0.100663
    39  C   -0.107491
    40  C    0.039725
    41  N   -0.081505
    42  C   -0.003595
    43  C   -0.097661
    44  C   -0.099278
    45  C   -0.105766
    46  C   -0.003232
    47  C   -0.096291
    48  C   -0.058492
    49  C    0.331090
    50  O   -0.284497
    51  O   -0.257212
    52  C   -0.054795
    53  C   -0.082472
    54  O   -0.463428
    55  H    0.065400
    56  H    0.055455
    57  H    0.058266
    58  H    0.056324
    59  H    0.050771
    60  H    0.054836
    61  H    0.048487
    62  H    0.051365
    63  H    0.055807
    64  H    0.060351
    65  H    0.055740
    66  H    0.050295
    67  H    0.051814
    68  H    0.051715
    69  H    0.061593
    70  H    0.064084
    71  H    0.055498
    72  H    0.052106
    73  H    0.067767
    74  H    0.051613
    75  H    0.064994
    76  H    0.077206
    77  H    0.074575
    78  H    0.072386
    79  H    0.055553
    80  H    0.071714
    81  H    0.076577
    82  H    0.059558
    83  H    0.059483
    84  H    0.053338
    85  H    0.057864
    86  H    0.065418
    87  H    0.053805
    88  H    0.057938
    89  H    0.054006
    90  H    0.053071
    91  H    0.045572
    92  H    0.084582
    93  H    0.056008
    94  H    0.079958
    95  H    0.058104
    96  H    0.058442
    97  H    0.046938
    98  H    0.065132
    99  H    0.097175
   100  H    0.091773
   101  H    0.058856
   102  H    0.096799
   103  H    0.047003
   104  H    0.069104
   105  H    0.079570
   106  H    0.067683
   107  H    0.074089
   108  H    0.065770
   109  H    0.069622
   110  H    0.065342
 Sum of Mulliken charges =  -0.00000
 Mulliken charges with hydrogens summed into heavy atoms:
               1
     1  C   -0.009907
     2  C   -0.000882
     3  C   -0.006275
     4  C   -0.031685
     5  C    0.089185
     6  C   -0.012549
     7  N   -0.286000
     8  C    0.017701
     9  C    0.127871
    10  C    0.096260
    11  C   -0.009363
    12  C   -0.005672
    13  C    0.027930
    14  N   -0.291652
    15  C    0.099585
    16  C   -0.002099
    17  C    0.001293
    18  C    0.020170
    19  C    0.087461
    20  C    0.008892
    21  C   -0.001485
    22  C    0.319612
    23  O   -0.276965
    24  O   -0.255460
    25  C    0.168361
    26  C    0.124586
    27  C    0.009024
    28  C    0.008255
    29  C   -0.027850
    30  C   -0.007572
    31  C   -0.012070
    32  C    0.082460
    33  C   -0.012464
    34  N   -0.281991
    35  C    0.006643
    36  C    0.124315
    37  C    0.095361
    38  C    0.011281
    39  C   -0.008848
    40  C    0.039725
    41  N   -0.081505
    42  C    0.136994
    43  C    0.040401
    44  C    0.006102
    45  C    0.056541
    46  C    0.147397
    47  C    0.047511
    48  C    0.010612
    49  C    0.331090
    50  O   -0.284497
    51  O   -0.257212
    52  C    0.166547
    53  C    0.118263
    54  O   -0.463428
 Electronic spatial extent (au):  <R**2>=          38124.8218
 Charge=              0.0000 electrons
 Dipole moment (field-independent basis, Debye):
    X=             -2.4779    Y=              1.2068    Z=              0.9384  Tot=              2.9116
 Quadrupole moment (field-independent basis, Debye-Ang):
   XX=           -289.1825   YY=           -305.0665   ZZ=           -290.7280
   XY=              3.5871   XZ=             12.6225   YZ=              4.4909
 Traceless Quadrupole moment (field-independent basis, Debye-Ang):
   XX=              5.8098   YY=            -10.0742   ZZ=              4.2643
   XY=              3.5871   XZ=             12.6225   YZ=              4.4909
 Octapole moment (field-independent basis, Debye-Ang**2):
  XXX=           -144.6639  YYY=            -53.2250  ZZZ=             24.7694  XYY=            -18.2857
  XXY=             11.5166  XXZ=              3.4525  XZZ=             23.6322  YZZ=            -21.9501
  YYZ=            -22.3076  XYZ=              8.4780
 Hexadecapole moment (field-independent basis, Debye-Ang**3):
 XXXX=         -32691.8363 YYYY=          -8524.9049 ZZZZ=          -4758.6793 XXXY=            -99.6042
 XXXZ=           -235.4413 YYYX=           -318.1635 YYYZ=             69.2598 ZZZX=            -90.5173
 ZZZY=            -51.5818 XXYY=          -7233.2103 XXZZ=          -6276.8342 YYZZ=          -2253.6823
 XXYZ=            195.5401 YYXZ=            -41.2752 ZZXY=           -101.1757
 N-N= 8.136341754669D+03 E-N=-2.164956482678D+04  KE= 2.279167381816D+03
 ******************************Gaussian NBO Version 3.1******************************
             N A T U R A L   A T O M I C   O R B I T A L   A N D
          N A T U R A L   B O N D   O R B I T A L   A N A L Y S I S
 ******************************Gaussian NBO Version 3.1******************************
       /RESON  / : Allow strongly delocalized NBO set
       /NLMO   / : Form Natural Localized Molecular Orbitals
       /NMR /    : Analyze NMR Sheilding Tensor 

 Analyzing the SCF density

 Job title: Pleiokomenine_C_2                                               

 Storage needed:    355564 in NPA,    438187 in NBO,   2133784 in NLMO ( 104796000 available)
 GSVD:  LWork=     -108884 too small for GESVD, short by      536270 words or      536270 for optimal perf.


 NATURAL POPULATIONS:  Natural atomic orbital occupancies 
                                                          
   NAO  Atom  No  lang   Type(AO)    Occupancy      Energy
 ----------------------------------------------------------
     1    C    1  S      Cor( 1S)     1.99993     -10.94237
     2    C    1  S      Val( 2S)     1.07853      -0.17353
     3    C    1  px     Val( 2p)     0.98590       0.15342
     4    C    1  py     Val( 2p)     0.98001       0.16162
     5    C    1  pz     Val( 2p)     1.01263       0.01342
 
     6    C    2  S      Cor( 1S)     1.99990     -10.95565
     7    C    2  S      Val( 2S)     1.07853      -0.18259
     8    C    2  px     Val( 2p)     0.94037       0.16887
     9    C    2  py     Val( 2p)     0.95580       0.17799
    10    C    2  pz     Val( 2p)     1.01211       0.02245
 
    11    C    3  S      Cor( 1S)     1.99994     -10.94651
    12    C    3  S      Val( 2S)     1.08460      -0.18178
    13    C    3  px     Val( 2p)     0.96634       0.16519
    14    C    3  py     Val( 2p)     0.97522       0.15779
    15    C    3  pz     Val( 2p)     1.00714       0.01445
 
    16    C    4  S      Cor( 1S)     1.99993     -10.93936
    17    C    4  S      Val( 2S)     1.07214      -0.17196
    18    C    4  px     Val( 2p)     0.98544       0.15339
    19    C    4  py     Val( 2p)     0.97145       0.16341
    20    C    4  pz     Val( 2p)     1.05795       0.00191
 
    21    C    5  S      Cor( 1S)     1.99985     -10.98587
    22    C    5  S      Val( 2S)     1.05884      -0.18185
    23    C    5  px     Val( 2p)     0.89381       0.16202
    24    C    5  py     Val( 2p)     0.95413       0.17184
    25    C    5  pz     Val( 2p)     0.98106       0.01366
 
    26    C    6  S      Cor( 1S)     1.99990     -10.94377
    27    C    6  S      Val( 2S)     1.08236      -0.18426
    28    C    6  px     Val( 2p)     0.97063       0.17455
    29    C    6  py     Val( 2p)     0.94776       0.15711
    30    C    6  pz     Val( 2p)     1.02358       0.01786
 
    31    N    7  S      Cor( 1S)     1.99998     -15.26817
    32    N    7  S      Val( 2S)     1.40597      -0.59403
    33    N    7  px     Val( 2p)     1.16353      -0.00962
    34    N    7  py     Val( 2p)     1.10041       0.00124
    35    N    7  pz     Val( 2p)     1.60436      -0.19806
 
    36    C    8  S      Cor( 1S)     1.99996     -11.00558
    37    C    8  S      Val( 2S)     1.10895      -0.23082
    38    C    8  px     Val( 2p)     0.96047       0.08312
    39    C    8  py     Val( 2p)     0.96496       0.10956
    40    C    8  pz     Val( 2p)     0.94645       0.10597
 
    41    C    9  S      Cor( 1S)     1.99996     -11.04965
    42    C    9  S      Val( 2S)     1.11218      -0.25586
    43    C    9  px     Val( 2p)     0.92325       0.08633
    44    C    9  py     Val( 2p)     0.85502       0.12325
    45    C    9  pz     Val( 2p)     0.93806       0.08548
 
    46    C   10  S      Cor( 1S)     1.99993     -11.01699
    47    C   10  S      Val( 2S)     1.09789      -0.21962
    48    C   10  px     Val( 2p)     0.95689       0.09845
    49    C   10  py     Val( 2p)     0.94760       0.08297
    50    C   10  pz     Val( 2p)     0.92391       0.10992
 
    51    C   11  S      Cor( 1S)     1.99994     -10.97987
    52    C   11  S      Val( 2S)     1.10385      -0.21431
    53    C   11  px     Val( 2p)     1.01176       0.08312
    54    C   11  py     Val( 2p)     0.99473       0.08703
    55    C   11  pz     Val( 2p)     0.97490       0.08339
 
    56    C   12  S      Cor( 1S)     1.99996     -10.97744
    57    C   12  S      Val( 2S)     1.09140      -0.19967
    58    C   12  px     Val( 2p)     1.01249       0.08570
    59    C   12  py     Val( 2p)     0.98320       0.08890
    60    C   12  pz     Val( 2p)     0.98678       0.09290
 
    61    C   13  S      Cor( 1S)     1.99998     -11.00402
    62    C   13  S      Val( 2S)     1.10511      -0.22775
    63    C   13  px     Val( 2p)     0.93659       0.11344
    64    C   13  py     Val( 2p)     0.94976       0.10977
    65    C   13  pz     Val( 2p)     0.95821       0.09668
 
    66    N   14  S      Cor( 1S)     1.99999     -15.23967
    67    N   14  S      Val( 2S)     1.42866      -0.58424
    68    N   14  px     Val( 2p)     1.42229      -0.10090
    69    N   14  py     Val( 2p)     1.31018      -0.05705
    70    N   14  pz     Val( 2p)     1.11845       0.01583
 
    71    C   15  S      Cor( 1S)     1.99993     -11.00759
    72    C   15  S      Val( 2S)     1.07012      -0.18991
    73    C   15  px     Val( 2p)     0.97817       0.08313
    74    C   15  py     Val( 2p)     0.90981       0.11728
    75    C   15  pz     Val( 2p)     1.00482       0.08138
 
    76    C   16  S      Cor( 1S)     1.99997     -10.97573
    77    C   16  S      Val( 2S)     1.08080      -0.18893
    78    C   16  px     Val( 2p)     1.01137       0.08901
    79    C   16  py     Val( 2p)     0.99427       0.09190
    80    C   16  pz     Val( 2p)     0.98823       0.09371
 
    81    C   17  S      Cor( 1S)     1.99996     -10.97845
    82    C   17  S      Val( 2S)     1.08581      -0.19390
    83    C   17  px     Val( 2p)     1.00746       0.08805
    84    C   17  py     Val( 2p)     0.98896       0.09158
    85    C   17  pz     Val( 2p)     0.98653       0.09340
 
    86    C   18  S      Cor( 1S)     1.99995     -10.97552
    87    C   18  S      Val( 2S)     1.09203      -0.19605
    88    C   18  px     Val( 2p)     1.02377       0.09073
    89    C   18  py     Val( 2p)     0.98717       0.08560
    90    C   18  pz     Val( 2p)     0.97252       0.09727
 
    91    C   19  S      Cor( 1S)     1.99994     -11.00031
    92    C   19  S      Val( 2S)     1.07208      -0.18558
    93    C   19  px     Val( 2p)     0.95103       0.10112
    94    C   19  py     Val( 2p)     0.99704       0.08832
    95    C   19  pz     Val( 2p)     0.94676       0.09909
 
    96    C   20  S      Cor( 1S)     1.99992     -10.98423
    97    C   20  S      Val( 2S)     1.09992      -0.21221
    98    C   20  px     Val( 2p)     0.97099       0.08440
    99    C   20  py     Val( 2p)     0.97530       0.09129
   100    C   20  pz     Val( 2p)     1.02749       0.07577
 
   101    C   21  S      Cor( 1S)     1.99994     -11.00844
   102    C   21  S      Val( 2S)     1.11091      -0.23911
   103    C   21  px     Val( 2p)     0.98966       0.07763
   104    C   21  py     Val( 2p)     0.99173       0.06831
   105    C   21  pz     Val( 2p)     0.99219       0.06762
 
   106    C   22  S      Cor( 1S)     1.99991     -11.11213
   107    C   22  S      Val( 2S)     1.05483      -0.26101
   108    C   22  px     Val( 2p)     0.83561       0.07879
   109    C   22  py     Val( 2p)     0.81580       0.10491
   110    C   22  pz     Val( 2p)     0.89094       0.09113
 
   111    O   23  S      Cor( 1S)     1.99999     -20.09857
   112    O   23  S      Val( 2S)     1.80816      -1.05839
   113    O   23  px     Val( 2p)     1.67602      -0.26582
   114    O   23  py     Val( 2p)     1.34875      -0.13623
   115    O   23  pz     Val( 2p)     1.47818      -0.17942
 
   116    O   24  S      Cor( 1S)     1.99999     -20.21555
   117    O   24  S      Val( 2S)     1.73005      -1.02814
   118    O   24  px     Val( 2p)     1.38001      -0.16682
   119    O   24  py     Val( 2p)     1.67159      -0.29794
   120    O   24  pz     Val( 2p)     1.48540      -0.22037
 
   121    C   25  S      Cor( 1S)     1.99984     -11.04584
   122    C   25  S      Val( 2S)     1.07698      -0.22750
   123    C   25  px     Val( 2p)     0.96924       0.04842
   124    C   25  py     Val( 2p)     1.04080       0.03798
   125    C   25  pz     Val( 2p)     0.87855       0.07591
 
   126    C   26  S      Cor( 1S)     1.99992     -11.01503
   127    C   26  S      Val( 2S)     1.06539      -0.19566
   128    C   26  px     Val( 2p)     0.94801       0.07850
   129    C   26  py     Val( 2p)     1.01465       0.06084
   130    C   26  pz     Val( 2p)     0.98871       0.07567
 
   131    C   27  S      Cor( 1S)     1.99995     -10.98462
   132    C   27  S      Val( 2S)     1.08387      -0.19033
   133    C   27  px     Val( 2p)     0.98037       0.09577
   134    C   27  py     Val( 2p)     1.01121       0.08597
   135    C   27  pz     Val( 2p)     1.01196       0.08664
 
   136    C   28  S      Cor( 1S)     1.99991     -10.96147
   137    C   28  S      Val( 2S)     1.08118      -0.18869
   138    C   28  px     Val( 2p)     0.95367       0.11279
   139    C   28  py     Val( 2p)     0.97897       0.09719
   140    C   28  pz     Val( 2p)     0.95872       0.15166
 
   141    C   29  S      Cor( 1S)     1.99992     -10.94803
   142    C   29  S      Val( 2S)     1.07794      -0.18105
   143    C   29  px     Val( 2p)     0.99571       0.08801
   144    C   29  py     Val( 2p)     1.00495       0.08266
   145    C   29  pz     Val( 2p)     0.98888       0.13332
 
   146    C   30  S      Cor( 1S)     1.99994     -10.94777
   147    C   30  S      Val( 2S)     1.08324      -0.18295
   148    C   30  px     Val( 2p)     0.99017       0.09707
   149    C   30  py     Val( 2p)     0.99838       0.08468
   150    C   30  pz     Val( 2p)     0.96962       0.14645
 
   151    C   31  S      Cor( 1S)     1.99993     -10.94532
   152    C   31  S      Val( 2S)     1.07594      -0.17575
   153    C   31  px     Val( 2p)     1.00784       0.09016
   154    C   31  py     Val( 2p)     0.98839       0.09138
   155    C   31  pz     Val( 2p)     0.99604       0.13374
 
   156    C   32  S      Cor( 1S)     1.99985     -10.98128
   157    C   32  S      Val( 2S)     1.06628      -0.18753
   158    C   32  px     Val( 2p)     0.91364       0.12042
   159    C   32  py     Val( 2p)     0.96457       0.09588
   160    C   32  pz     Val( 2p)     0.95402       0.13341
 
   161    C   33  S      Cor( 1S)     1.99990     -10.95255
   162    C   33  S      Val( 2S)     1.08853      -0.19627
   163    C   33  px     Val( 2p)     0.98590       0.09082
   164    C   33  py     Val( 2p)     0.95642       0.10896
   165    C   33  pz     Val( 2p)     0.98634       0.12949
 
   166    N   34  S      Cor( 1S)     1.99998     -15.25886
   167    N   34  S      Val( 2S)     1.44143      -0.60029
   168    N   34  px     Val( 2p)     1.34761      -0.08572
   169    N   34  py     Val( 2p)     1.38459      -0.10305
   170    N   34  pz     Val( 2p)     1.09982       0.02362
 
   171    C   35  S      Cor( 1S)     1.99996     -11.01020
   172    C   35  S      Val( 2S)     1.10570      -0.23625
   173    C   35  px     Val( 2p)     0.95418       0.10008
   174    C   35  py     Val( 2p)     0.96988       0.09148
   175    C   35  pz     Val( 2p)     0.97026       0.08008
 
   176    C   36  S      Cor( 1S)     1.99996     -11.04473
   177    C   36  S      Val( 2S)     1.12191      -0.25983
   178    C   36  px     Val( 2p)     0.91692       0.10835
   179    C   36  py     Val( 2p)     0.92363       0.09948
   180    C   36  pz     Val( 2p)     0.86854       0.10621
 
   181    C   37  S      Cor( 1S)     1.99991     -11.03361
   182    C   37  S      Val( 2S)     1.10960      -0.25033
   183    C   37  px     Val( 2p)     0.98831       0.06287
   184    C   37  py     Val( 2p)     0.84159       0.09542
   185    C   37  pz     Val( 2p)     0.98839       0.06264
 
   186    C   38  S      Cor( 1S)     1.99991     -10.97377
   187    C   38  S      Val( 2S)     1.11172      -0.21154
   188    C   38  px     Val( 2p)     1.00542       0.08621
   189    C   38  py     Val( 2p)     0.98455       0.09583
   190    C   38  pz     Val( 2p)     0.96417       0.10762
 
   191    C   39  S      Cor( 1S)     1.99996     -10.97501
   192    C   39  S      Val( 2S)     1.08997      -0.19645
   193    C   39  px     Val( 2p)     1.01807       0.08721
   194    C   39  py     Val( 2p)     0.97961       0.09256
   195    C   39  pz     Val( 2p)     0.99135       0.08933
 
   196    C   40  S      Cor( 1S)     1.99998     -11.01075
   197    C   40  S      Val( 2S)     1.09759      -0.22441
   198    C   40  px     Val( 2p)     0.93150       0.10848
   199    C   40  py     Val( 2p)     0.96288       0.09769
   200    C   40  pz     Val( 2p)     0.95022       0.10633
 
   201    N   41  S      Cor( 1S)     1.99999     -15.41780
   202    N   41  S      Val( 2S)     1.39349      -0.65806
   203    N   41  px     Val( 2p)     1.19370      -0.11876
   204    N   41  py     Val( 2p)     1.19973      -0.11075
   205    N   41  pz     Val( 2p)     1.18032      -0.10937
 
   206    C   42  S      Cor( 1S)     1.99992     -11.03851
   207    C   42  S      Val( 2S)     1.09117      -0.23553
   208    C   42  px     Val( 2p)     1.00294       0.05073
   209    C   42  py     Val( 2p)     1.02870       0.05118
   210    C   42  pz     Val( 2p)     0.82744       0.09317
 
   211    C   43  S      Cor( 1S)     1.99995     -10.99199
   212    C   43  S      Val( 2S)     1.08686      -0.20575
   213    C   43  px     Val( 2p)     0.95147       0.09315
   214    C   43  py     Val( 2p)     1.01050       0.07610
   215    C   43  pz     Val( 2p)     1.01533       0.08068
 
   216    C   44  S      Cor( 1S)     1.99995     -10.98708
   217    C   44  S      Val( 2S)     1.09142      -0.20547
   218    C   44  px     Val( 2p)     1.01094       0.08122
   219    C   44  py     Val( 2p)     0.98462       0.08781
   220    C   44  pz     Val( 2p)     0.97562       0.08987
 
   221    C   45  S      Cor( 1S)     1.99993     -10.98513
   222    C   45  S      Val( 2S)     1.09917      -0.20930
   223    C   45  px     Val( 2p)     0.99711       0.08751
   224    C   45  py     Val( 2p)     0.99738       0.07820
   225    C   45  pz     Val( 2p)     0.98048       0.08555
 
   226    C   46  S      Cor( 1S)     1.99993     -11.03089
   227    C   46  S      Val( 2S)     1.09448      -0.23164
   228    C   46  px     Val( 2p)     0.84122       0.09730
   229    C   46  py     Val( 2p)     1.03400       0.05471
   230    C   46  pz     Val( 2p)     0.98273       0.05502
 
   231    C   47  S      Cor( 1S)     1.99991     -10.97436
   232    C   47  S      Val( 2S)     1.10371      -0.20238
   233    C   47  px     Val( 2p)     0.98458       0.10218
   234    C   47  py     Val( 2p)     1.03991       0.08968
   235    C   47  pz     Val( 2p)     0.93007       0.11024
 
   236    C   48  S      Cor( 1S)     1.99993     -11.00538
[...]
  106      25.7780       -0.0934      25.8714         0.5235      25.2544
  107       1.5880        4.0779      -2.4899        -0.2434       1.8314
  108       0.1029       -0.0822       0.1851        -0.8979       1.0008
  195       0.2585       -1.2862       1.5446         1.1835      -0.9250
 Sum       29.0915        6.1333      22.9582        -4.5185      33.6100

 Contributions to Isotropic shielding for atom   95 (    32.2596 ppm):
                         Standard Origin              Atomic Origin
 NLMO      Total    Paramagnetic  Diamagnetic   Paramagnetic  Diamagnetic
   89      -0.3913        0.4008      -0.7921        -1.1179       0.7266
  102       1.5511        0.3342       1.2168         0.5908       0.9603
  103       0.3018        1.5459      -1.2441        -0.5811       0.8829
  104       0.0668        1.3593      -1.2925        -0.8843       0.9511
  105       0.5276        3.2406      -2.7129        -0.5785       1.1061
  106       1.9095        3.8861      -1.9766         0.0670       1.8424
  107      26.3790       -0.2802      26.6592         0.5649      25.8141
  109       0.0465       -0.0310       0.0775        -1.0707       1.1172
 Sum       30.3910       10.4556      19.9353        -3.0097      33.4007

 Contributions to Isotropic shielding for atom   96 (    32.0435 ppm):
                         Standard Origin              Atomic Origin
 NLMO      Total    Paramagnetic  Diamagnetic   Paramagnetic  Diamagnetic
   89      -0.4813        0.4452      -0.9264        -1.1948       0.7135
   94      -0.2062        1.6533      -1.8596        -0.7310       0.5248
   97       1.0936        1.3289      -0.2354         0.1342       0.9594
   98      -0.3888        2.0093      -2.3981        -1.3666       0.9778
  105       0.5478        3.1831      -2.6353        -0.5201       1.0679
  106       0.0791        0.7769      -0.6978        -1.0256       1.1046
  107       0.3182        1.0824      -0.7642        -0.5514       0.8695
  108      26.4931       -0.4220      26.9151         0.7436      25.7496
  109       1.8551        3.4017      -1.5466         0.1264       1.7287
 Sum       29.3105       13.4588      15.8517        -4.3852      33.6958

 Contributions to Isotropic shielding for atom   97 (    32.5839 ppm):
                         Standard Origin              Atomic Origin
 NLMO      Total    Paramagnetic  Diamagnetic   Paramagnetic  Diamagnetic
   89      -0.4771        0.5184      -0.9955        -1.0858       0.6087
   90      -0.1394        1.3288      -1.4682        -0.8116       0.6722
   94      -0.2480        1.0466      -1.2946        -1.1605       0.9125
   97       2.0004       -1.4348       3.4351         1.0530       0.9474
  102       0.2158       -0.8291       1.0449        -0.3308       0.5466
  105       1.2566        0.3183       0.9383         0.1428       1.1138
  107       0.0632        0.0816      -0.0184        -0.9523       1.0155
  108       1.4401        4.2796      -2.8395        -0.3971       1.8372
  109      26.5613        0.1500      26.4113         0.4994      26.0619
 Sum       30.6729        5.4594      25.2135        -3.0429      33.7157

 Contributions to Isotropic shielding for atom   98 (    32.5899 ppm):
                         Standard Origin              Atomic Origin
 NLMO      Total    Paramagnetic  Diamagnetic   Paramagnetic  Diamagnetic
   71       0.0120       -1.1616       1.1736        -1.0692       1.0812
   76      -0.2131       -1.0445       0.8314        -0.7995       0.5864
   80       0.3237       -1.1009       1.4246        -0.7635       1.0872
   85       1.1427        0.5999       0.5428         0.5014       0.6413
   89       0.4559       -0.6733       1.1292        -0.4843       0.9402
  110       1.3183       -0.7119       2.0302         0.4941       0.8242
  111      25.9435        0.6099      25.3336         0.4128      25.5307
  112       1.9990        0.1990       1.8000         0.0704       1.9287
  114       0.2190       -0.7906       1.0096        -0.7171       0.9361
  121       0.0717       -0.9665       1.0382        -0.7049       0.7766
 Sum       31.2728       -5.0404      36.3132        -3.0598      34.3326

 Contributions to Isotropic shielding for atom   99 (    31.0862 ppm):
                         Standard Origin              Atomic Origin
 NLMO      Total    Paramagnetic  Diamagnetic   Paramagnetic  Diamagnetic
   85       0.3307        1.8958      -1.5651        -0.5027       0.8334
   87       0.0067       -1.1522       1.1589        -0.8360       0.8427
   89       0.5357       -0.6800       1.2158        -0.3452       0.8809
   98       0.1240       -0.9042       1.0282        -0.5283       0.6523
  101       0.0539       -0.9881       1.0420        -0.5057       0.5596
  110       0.8922        1.0316      -0.1394         0.1368       0.7554
  111       2.0926       -0.3803       2.4729         0.1661       1.9265
  112      25.3888        0.1332      25.2555         0.5069      24.8818
  113       0.0471       -0.4370       0.4841        -0.9545       1.0016
  118       0.7233       -1.3338       2.0571        -0.1557       0.8790
  120       1.0584       -0.5872       1.6455         0.3925       0.6659
  121      -0.0783       -2.7588       2.6805        -1.1746       1.0963
  123       0.2529       -1.0816       1.3345        -0.4578       0.7107
  191      -0.6971        1.5089      -2.2060         0.3825      -1.0796
  195      -0.1461        1.2764      -1.4224         0.8466      -0.9926
 Sum       30.5847       -4.4573      35.0421        -3.0293      33.6140

 Contributions to Isotropic shielding for atom  100 (    30.7063 ppm):
                         Standard Origin              Atomic Origin
 NLMO      Total    Paramagnetic  Diamagnetic   Paramagnetic  Diamagnetic
  100      -0.1831        1.9371      -2.1203        -0.9574       0.7743
  101       0.1587       -1.2565       1.4152        -0.8622       1.0209
  103      -0.0483       -1.7087       1.6604        -0.8757       0.8274
  104       0.2325       -0.8274       1.0599        -0.3869       0.6194
  110       1.1784       -0.4345       1.6129         0.2154       0.9630
  112       0.1331       -0.1474       0.2805        -0.9073       1.0404
  113      25.6531        0.5779      25.0752         0.8286      24.8245
  114       1.9005       -0.1992       2.0997         0.2084       1.6921
  195       0.0268        1.1995      -1.1727         0.8377      -0.8109
 Sum       29.0517       -0.8592      29.9109        -1.8995      30.9512

 Contributions to Isotropic shielding for atom  101 (    31.2726 ppm):
                         Standard Origin              Atomic Origin
 NLMO      Total    Paramagnetic  Diamagnetic   Paramagnetic  Diamagnetic
   71       0.0959       -0.6789       0.7748        -1.0368       1.1328
   84       0.1653       -0.9542       1.1195        -0.6618       0.8271
   89       1.0382       -0.7807       1.8189         0.1420       0.8962
   90      -0.0820       -1.0929       1.0108        -0.8000       0.7180
   99       0.5798       -0.5332       1.1130        -0.1495       0.7293
  100       0.1458        1.6832      -1.5374        -0.2962       0.4421
  103       0.1527       -1.0928       1.2456        -0.5791       0.7319
  104       0.0182       -1.7619       1.7801        -0.7839       0.8021
  110       1.2192       -1.0290       2.2481         0.3886       0.8306
  113       1.6775       -0.1537       1.8311        -0.1620       1.8395
  114      26.2642        0.5791      25.6851         0.6270      25.6372
 Sum       31.2747       -5.8150      37.0897        -3.3119      34.5866

 Contributions to Isotropic shielding for atom  102 (    30.1196 ppm):
                         Standard Origin              Atomic Origin
 NLMO      Total    Paramagnetic  Diamagnetic   Paramagnetic  Diamagnetic
   89      -0.6417        0.4115      -1.0532        -1.5401       0.8985
   97      -0.2072        0.7344      -0.9416        -1.0437       0.8365
   98       1.3678       -0.2832       1.6509         0.4355       0.9323
  106      -0.2629       -1.2738       1.0110        -0.8219       0.5591
  115       1.4425       -0.4436       1.8861         0.5720       0.8705
  116      25.4134       -0.0082      25.4217         0.6455      24.7680
  117       0.9854        4.0638      -3.0785        -0.9378       1.9232
  118      -0.5002        0.7168      -1.2170        -1.5688       1.0686
  119       0.3312        1.2963      -0.9651        -0.1646       0.4957
  122       0.7063       -0.8040       1.5104        -0.5659       1.2722
  193      -0.9268        0.5471      -1.4739         0.3940      -1.3208
 Sum       27.7079        4.9571      22.7507        -4.5960      32.3038

 Contributions to Isotropic shielding for atom  103 (    31.5406 ppm):
                         Standard Origin              Atomic Origin
 NLMO      Total    Paramagnetic  Diamagnetic   Paramagnetic  Diamagnetic
   86      -0.0751        0.4678      -0.5429        -1.0186       0.9435
   94      -0.3409        1.2161      -1.5570        -1.3096       0.9687
   97      -0.2449        1.5681      -1.8130        -0.8426       0.5976
   98       0.7568        2.0995      -1.3427        -0.1927       0.9495
  108      -0.0315       -1.3882       1.3567        -0.8232       0.7917
  115       0.7934        2.7445      -1.9512        -0.3156       1.1089
  116       1.7905        3.9947      -2.2042        -0.2264       2.0169
  117      26.9405       -0.8083      27.7488         0.9089      26.0317
  118      -0.2987        0.7784      -1.0770        -0.5045       0.2059
  119      -0.1891        1.0441      -1.2332        -1.3037       1.1145
  122       0.2531       -0.3635       0.6165        -0.8716       1.1246
 Sum       29.3541       11.3532      18.0009        -6.4996      35.8536

 Contributions to Isotropic shielding for atom  104 (    31.0284 ppm):
                         Standard Origin              Atomic Origin
 NLMO      Total    Paramagnetic  Diamagnetic   Paramagnetic  Diamagnetic
   81      -0.3455        1.3013      -1.6468        -1.2563       0.9108
   86      -0.3371        1.9715      -2.3087        -1.5515       1.2143
   87       1.5346        1.3118       0.2228         0.4791       1.0555
   93      -0.0907       -1.8694       1.7787        -0.8585       0.7677
  115       0.5850        4.6850      -4.1000        -0.6237       1.2087
  117      -0.0376       -1.0216       0.9841        -1.1814       1.1438
  118       0.7489        4.2198      -3.4709        -0.3164       1.0653
  119      26.1007       -0.7738      26.8745         0.5993      25.5015
  122      -0.2309       -0.0247      -0.2062        -1.6928       1.4618
 Sum       27.9274        9.7998      18.1276        -6.4021      34.3295

 Contributions to Isotropic shielding for atom  105 (    30.5603 ppm):
                         Standard Origin              Atomic Origin
 NLMO      Total    Paramagnetic  Diamagnetic   Paramagnetic  Diamagnetic
  120      -0.7924        0.4472      -1.2397        -1.6819       0.8894
  121      -0.1679        0.9457      -1.1136        -1.7166       1.5487
  122      -0.2124        0.1933      -0.4057        -1.1049       0.8924
  123       2.5241       -4.6989       7.2230         1.1185       1.4056
  124      25.7910        1.0158      24.7752         0.7266      25.0644
  125       1.6913       -0.5980       2.2893        -0.1735       1.8648
  126       1.4411        1.0796       0.3615        -0.5955       2.0366
  193       0.7042        1.0328      -0.3286         0.7439      -0.0397
  194       0.2483       -0.9336       1.1819        -0.3056       0.5540
 Sum       31.2272       -1.5160      32.7432        -2.9890      34.2162

 Contributions to Isotropic shielding for atom  106 (    30.6293 ppm):
                         Standard Origin              Atomic Origin
 NLMO      Total    Paramagnetic  Diamagnetic   Paramagnetic  Diamagnetic
  120      -1.1145        0.6458      -1.7602        -2.0112       0.8968
  121      -0.3529        1.7389      -2.0918        -1.8943       1.5414
  122      -0.6901        0.2504      -0.9406        -1.4734       0.7833
  123       1.1897       -0.1672       1.3569        -0.3108       1.5005
  124       1.9550       -1.1474       3.1024         0.0807       1.8744
  125      26.2926        0.6311      25.6615         0.9332      25.3594
  126       1.1863        3.5151      -2.3288        -0.8458       2.0321
  191       0.4380       -1.2818       1.7198         1.2218      -0.7838
  193       1.2399       -0.0948       1.3347         1.2881      -0.0482
 Sum       30.1441        4.0902      26.0539        -3.0116      33.1557

 Contributions to Isotropic shielding for atom  107 (    30.6356 ppm):
                         Standard Origin              Atomic Origin
 NLMO      Total    Paramagnetic  Diamagnetic   Paramagnetic  Diamagnetic
  120      -0.5303        0.1408      -0.6712        -1.1668       0.6364
  121      -0.0221        0.7558      -0.7780        -1.0584       1.0362
  123       0.2582        4.0196      -3.7614        -1.8276       2.0858
  124       1.6485        0.8832       0.7653        -0.3543       2.0028
  125       0.9856        3.3181      -2.3325        -0.9896       1.9752
  126      26.2234        0.3631      25.8603         0.9340      25.2894
  193       0.6630       -1.1905       1.8535         1.1298      -0.4668
 Sum       29.2262        8.2901      20.9361        -3.3328      32.5590

 Contributions to Isotropic shielding for atom  108 (    31.5740 ppm):
                         Standard Origin              Atomic Origin
 NLMO      Total    Paramagnetic  Diamagnetic   Paramagnetic  Diamagnetic
   76      -0.4769       -0.4509      -0.0259        -1.3189       0.8420
   82       1.7491       -2.2560       4.0051         0.9449       0.8041
   85      -0.1103        0.1064      -0.2167        -1.0397       0.9294
  118       0.4056       -0.7015       1.1072        -0.4804       0.8860
  121       0.0999       -0.9931       1.0930        -0.7950       0.8949
  127      25.9794        0.9032      25.0763         0.5266      25.4529
  128       1.8315        1.0289       0.8026         0.0129       1.8187
  129       1.8480       -0.2338       2.0818        -0.0500       1.8980
  191      -0.3987        0.7765      -1.1751         0.5880      -0.9867
 Sum       30.9278       -1.8204      32.7483        -1.6116      32.5394

 Contributions to Isotropic shielding for atom  109 (    31.7516 ppm):
                         Standard Origin              Atomic Origin
 NLMO      Total    Paramagnetic  Diamagnetic   Paramagnetic  Diamagnetic
   76      -0.3761       -0.1859      -0.1902        -1.2120       0.8358
   82       0.5868        2.1638      -1.5770        -0.7161       1.3029
   87      -0.1040        0.0850      -0.1889        -1.0422       0.9382
  118       0.2004       -0.3267       0.5271        -0.8010       1.0015
  121      -0.3372       -0.0968      -0.2403        -1.4278       1.0906
  127       2.0818       -0.2459       2.3277         0.3049       1.7769
  128      26.2143        0.1791      26.0352         0.7386      25.4756
  129       1.5650        2.8283      -1.2633        -0.4382       2.0032
  191       0.0538       -0.0773       0.1312         1.0156      -0.9617
 Sum       29.8848        4.3235      25.5613        -3.5783      33.4631

 Contributions to Isotropic shielding for atom  110 (    31.1448 ppm):
                         Standard Origin              Atomic Origin
 NLMO      Total    Paramagnetic  Diamagnetic   Paramagnetic  Diamagnetic
   75      -0.3396        0.3377      -0.6773        -1.0447       0.7052
   76      -0.5807       -0.2420      -0.3387        -1.8803       1.2996
   79      -0.1528       -0.1191      -0.0336        -1.0014       0.8486
   82       1.0117        0.6429       0.3689        -0.2044       1.2161
  127       2.1057       -0.8393       2.9450         0.2652       1.8405
  128       1.4516        2.8535      -1.4019        -0.5406       1.9922
  129      26.2208        0.3138      25.9070         0.6690      25.5518
 Sum       29.7167        2.9473      26.7694        -3.7371      33.4539
 
 1\1\GINC-PCSN02\SP\RHF\STO-3G\C45H56N4O5\ABENIDD\30-May-2024\0\\# nmr=
 giao hf/sto-3g pop=nbo geom=connectivity\\Pleiokomenine_C_2\\0,1\C,0,0
 .,0.,0.\C,0,1.4016,0.,0.\C,0,2.0802,1.2375,0.\C,0,1.3843,2.456,-0.0386
 \C,0,0.0014,2.4394,-0.0839\C,0,-0.6734,1.2101,-0.0469\N,0,-0.893,3.539
 ,-0.1777\C,0,-2.1583,1.4644,-0.0086\C,0,-2.1366,2.8943,-0.6775\C,0,-3.
 119,0.5536,-0.788\C,0,-2.0345,2.7216,-2.2564\C,0,-3.2515,1.9737,-2.815
 2\C,0,-4.0934,1.4374,-1.6408\N,0,-3.7399,-0.2956,0.2344\C,0,-4.9391,-0
 .9986,-0.2041\C,0,-5.9431,-0.1513,-0.9844\C,0,-5.2675,0.5842,-2.1411\C
 ,0,-2.5884,1.3073,1.4699\C,0,-3.8758,0.4925,1.4505\C,0,-4.6155,2.7103,
 -0.89\C,0,-3.457,3.6552,-0.4658\C,0,-3.6867,4.2674,0.9046\O,0,-4.4915,
 3.8583,1.7323\O,0,-2.9283,5.3881,1.0646\C,0,-3.0628,6.0083,2.343\C,0,-
 0.3747,4.753,-0.7894\C,0,2.1867,-1.2952,0.0757\C,0,1.6602,-2.3989,-0.8
 202\C,0,0.7209,-3.3167,-0.3229\C,0,2.0402,-2.4513,-2.1796\C,0,1.5033,-
 3.4091,-3.0469\C,0,0.5668,-4.2975,-2.5505\C,0,0.167,-4.2342,-1.2003\N,
 0,-0.0415,-5.3832,-3.2737\C,0,-1.0181,-5.153,-1.0236\C,0,-0.6372,-6.16
 6,-2.1512\C,0,-1.2448,-5.9541,0.2494\C,0,0.6512,-7.0444,-1.6513\C,0,0.
 4456,-7.6528,-0.2644\C,0,-1.0238,-7.4703,0.1285\N,0,-2.6704,-5.652,0.6
 79\C,0,-2.8219,-6.0723,2.1047\C,0,-2.6111,-7.5965,2.1914\C,0,-1.3181,-
 8.1005,1.511\C,0,-2.2407,-4.1882,-1.0713\C,0,-2.7843,-4.2044,0.3675\C,
 0,-1.8296,-8.1086,-1.0508\C,0,-1.6826,-7.2883,-2.3917\C,0,-3.0497,-6.9
 396,-2.9718\O,0,-3.3617,-5.8943,-3.5242\O,0,-3.864,-8.04,-2.9369\C,0,-
 5.188,-7.7975,-3.4098\C,0,-0.8504,-4.8988,-4.3826\O,0,-3.6469,-6.2814,
 -0.0536\H,0,-0.5723,-0.9204,0.0443\H,0,3.1677,1.2609,0.0309\H,0,1.9369
 ,3.3884,-0.0384\H,0,-2.5654,-0.1123,-1.4642\H,0,-1.9643,3.7005,-2.7479
 \H,0,-1.1232,2.185,-2.5485\H,0,-3.8479,2.6461,-3.4449\H,0,-2.9148,1.15
 95,-3.4689\H,0,-4.619,-1.8246,-0.8522\H,0,-5.4365,-1.474,0.65\H,0,-6.7
 307,-0.8016,-1.3832\H,0,-6.439,0.5589,-0.3141\H,0,-4.9076,-0.1559,-2.8
 678\H,0,-6.0039,1.2044,-2.6658\H,0,-1.8481,0.7263,2.0392\H,0,-2.6869,2
 .2455,2.0141\H,0,-3.9409,-0.1508,2.3346\H,0,-4.7565,1.1366,1.452\H,0,-
 5.2542,2.4402,-0.0489\H,0,-5.2786,3.274,-1.5621\H,0,-3.492,4.5154,-1.1
 52\H,0,-2.3762,6.8585,2.3807\H,0,-2.7916,5.3097,3.1408\H,0,-4.0828,6.3
 799,2.4813\H,0,0.1026,4.556,-1.7559\H,0,0.3563,5.2314,-0.1288\H,0,-1.1
 779,5.4776,-0.9545\H,0,3.2372,-1.1143,-0.1876\H,0,2.1954,-1.6357,1.119
 3\H,0,0.383,-3.2516,0.7063\H,0,2.7574,-1.7321,-2.5704\H,0,1.8261,-3.45
 98,-4.0806\H,0,-0.6112,-5.545,1.0508\H,0,1.5855,-6.4688,-1.6372\H,0,0.
 8416,-7.8434,-2.3822\H,0,0.7323,-8.7116,-0.2723\H,0,1.1074,-7.159,0.45
 86\H,0,-3.832,-5.7865,2.4162\H,0,-2.0852,-5.5187,2.696\H,0,-3.4646,-8.
 1059,1.7269\H,0,-2.6099,-7.9016,3.2441\H,0,-1.3497,-9.1938,1.4319\H,0,
 -0.486,-7.8676,2.1894\H,0,-2.0162,-3.1585,-1.3739\H,0,-3.0178,-4.5399,
 -1.7455\H,0,-3.8324,-3.9043,0.45\H,0,-2.1565,-3.6531,1.0746\H,0,-2.870
 6,-8.2838,-0.769\H,0,-1.4398,-9.1208,-1.2345\H,0,-1.2665,-7.9668,-3.15
 26\H,0,-5.6551,-6.9783,-2.8537\H,0,-5.1749,-7.5817,-4.4825\H,0,-5.7773
 ,-8.704,-3.2463\H,0,-1.6345,-4.2081,-4.056\H,0,-1.2982,-5.7421,-4.9163
 \H,0,-0.2271,-4.3775,-5.1184\\Version=ES64L-G16RevB.01\State=1-A\HF=-2
 300.1951245\RMSD=3.453e-09\Dipole=0.4201634,0.9543817,0.4741244\Quadru
 pole=-6.6088633,6.1064884,0.5023749,-4.4961164,3.9673298,-8.4952653\PG
 =C01 [X(C45H56N4O5)]\\@


 WISDOM IS KNOWING WHAT TO DO,
 SKILL IS KNOWING HOW TO DO IT,
 AND VIRTUE IS NOT DOING IT.
 Job cpu time:       0 days  0 hours 11 minutes 43.8 seconds.
 Elapsed time:       0 days  0 hours  1 minutes 59.4 seconds.
 File lengths (MBytes):  RWF=     67 Int=      0 D2E=      0 Chk=     10 Scr=      1
 Normal termination of Gaussian 16 at Thu May 30 09:55:17 2024.
