 Entering Gaussian System, Link 0=g16
 Input=2_pleiokomenine_2a_c_24.gjf
 Output=2_pleiokomenine_2a_c_24.log
 Initial command:
 /opt/gaussian/g16/l1.exe "/data/abenidd/Elvis/pleiokomenine_C/NMR_HF/2a/2_pleiokomenine_2a_c_24/Gau-28278.inp" -scrdir="/data/abenidd/Elvis/pleiokomenine_C/NMR_HF/2a/2_pleiokomenine_2a_c_24/"
 Entering Link 1 = /opt/gaussian/g16/l1.exe PID=     28280.
  
 Copyright (c) 1988-2017, Gaussian, Inc.  All Rights Reserved.
  
 This is part of the Gaussian(R) 16 program.  It is based on
 the Gaussian(R) 09 system (copyright 2009, Gaussian, Inc.),
 the Gaussian(R) 03 system (copyright 2003, Gaussian, Inc.),
 the Gaussian(R) 98 system (copyright 1998, Gaussian, Inc.),
 the Gaussian(R) 94 system (copyright 1995, Gaussian, Inc.),
 the Gaussian 92(TM) system (copyright 1992, Gaussian, Inc.),
 the Gaussian 90(TM) system (copyright 1990, Gaussian, Inc.),
 the Gaussian 88(TM) system (copyright 1988, Gaussian, Inc.),
 the Gaussian 86(TM) system (copyright 1986, Carnegie Mellon
 University), and the Gaussian 82(TM) system (copyright 1983,
 Carnegie Mellon University). Gaussian is a federally registered
 trademark of Gaussian, Inc.
  
 This software contains proprietary and confidential information,
 including trade secrets, belonging to Gaussian, Inc.
  
 This software is provided under written license and may be
 used, copied, transmitted, or stored only in accord with that
 written license.
  
 The following legend is applicable only to US Government
 contracts under FAR:
  
                    RESTRICTED RIGHTS LEGEND
  
 Use, reproduction and disclosure by the US Government is
 subject to restrictions as set forth in subparagraphs (a)
 and (c) of the Commercial Computer Software - Restricted
 Rights clause in FAR 52.227-19.
  
 Gaussian, Inc.
 340 Quinnipiac St., Bldg. 40, Wallingford CT 06492
  
  
 ---------------------------------------------------------------
 Warning -- This program may not be used in any manner that
 competes with the business of Gaussian, Inc. or will provide
 assistance to any competitor of Gaussian, Inc.  The licensee
 of this program is prohibited from giving any competitor of
 Gaussian, Inc. access to this program.  By using this program,
 the user acknowledges that Gaussian, Inc. is engaged in the
 business of creating and licensing software in the field of
 computational chemistry and represents and warrants to the
 licensee that it is not a competitor of Gaussian, Inc. and that
 it will not use this program in any manner prohibited above.
 ---------------------------------------------------------------
  

 Cite this work as:
 Gaussian 16, Revision B.01,
 M. J. Frisch, G. W. Trucks, H. B. Schlegel, G. E. Scuseria, 
 M. A. Robb, J. R. Cheeseman, G. Scalmani, V. Barone, 
 G. A. Petersson, H. Nakatsuji, X. Li, M. Caricato, A. V. Marenich, 
 J. Bloino, B. G. Janesko, R. Gomperts, B. Mennucci, H. P. Hratchian, 
 J. V. Ortiz, A. F. Izmaylov, J. L. Sonnenberg, D. Williams-Young, 
 F. Ding, F. Lipparini, F. Egidi, J. Goings, B. Peng, A. Petrone, 
 T. Henderson, D. Ranasinghe, V. G. Zakrzewski, J. Gao, N. Rega, 
 G. Zheng, W. Liang, M. Hada, M. Ehara, K. Toyota, R. Fukuda, 
 J. Hasegawa, M. Ishida, T. Nakajima, Y. Honda, O. Kitao, H. Nakai, 
 T. Vreven, K. Throssell, J. A. Montgomery, Jr., J. E. Peralta, 
 F. Ogliaro, M. J. Bearpark, J. J. Heyd, E. N. Brothers, K. N. Kudin, 
 V. N. Staroverov, T. A. Keith, R. Kobayashi, J. Normand, 
 K. Raghavachari, A. P. Rendell, J. C. Burant, S. S. Iyengar, 
 J. Tomasi, M. Cossi, J. M. Millam, M. Klene, C. Adamo, R. Cammi, 
 J. W. Ochterski, R. L. Martin, K. Morokuma, O. Farkas, 
 J. B. Foresman, and D. J. Fox, Gaussian, Inc., Wallingford CT, 2016.
 
 ******************************************
 Gaussian 16:  ES64L-G16RevB.01 20-Dec-2017
                30-May-2024 
 ******************************************
 %nprocshared=8
 Will use up to    8 processors via shared memory.
 ----------------------------------------------
 # nmr=giao hf/sto-3g pop=nbo geom=connectivity
 ----------------------------------------------
 1/38=1,57=2,172=1/1;
 2/12=2,17=6,18=5,40=1/2;
 3/6=3,11=9,25=1,30=1/1,2,3,8;
 4//1;
 5/5=2,38=5/2;
 8/6=1,10=90,11=11/1;
 10/13=100,45=16/2;
 6/7=2,8=2,9=2,10=2,28=1,40=1,64=1/1,7;
 99/9=1/99;
 -----------------
 Pleiokomenine_C_2
 -----------------
 Symbolic Z-matrix:
 Charge =  0 Multiplicity = 1
 C                     0.        0.        0. 
 C                     1.4022    0.        0. 
 C                     2.0954    1.2288    0. 
 C                     1.4099    2.4506    0.0076 
 C                     0.0261    2.4436    0.0086 
 C                    -0.6627    1.2181    0.0228 
 N                    -0.8555    3.5571   -0.0027 
 C                    -2.1401    1.4948    0.1535 
 C                    -2.1325    2.9495   -0.46 
 C                    -3.1663    0.6349   -0.5976 
 C                    -2.1187    2.8358   -2.0468 
 C                    -3.3771    2.1276   -2.5649 
 C                    -4.1659    1.5649   -1.3662 
 N                    -3.7544   -0.2246    0.4312 
 C                    -4.9887   -0.8943    0.0473 
 C                    -6.0127   -0.0085   -0.6618 
 C                    -5.3814    0.7492   -1.83 
 C                    -2.4845    1.2927    1.65 
 C                    -3.7944    0.5165    1.6817 
 C                    -4.623     2.818    -0.5439 
 C                    -3.4251    3.7237   -0.1477 
 C                    -3.5675    4.2865    1.2552 
 O                    -4.3217    3.8506    2.1158 
 O                    -2.7932    5.3976    1.4091 
 C                    -2.856     5.9778    2.7118 
 C                    -0.3514    4.7866   -0.5961 
 C                     2.165    -1.3091    0.0451 
 C                     1.9175   -2.1599    1.2778 
 C                     1.6684   -1.5812    2.5315 
 C                     1.963    -3.5682    1.1654 
 C                     1.7458   -4.4019    2.2713 
 C                     1.4894   -3.8232    3.499 
 C                     1.4299   -2.4166    3.6107 
 N                     1.2873   -4.4608    4.7538 
 C                     0.9733   -2.0868    5.0145 
 C                     1.5835   -3.3571    5.7014 
 C                     1.4702   -0.8723    5.7784 
 C                     3.1911   -3.2024    5.7652 
 C                     3.6151   -1.8803    6.4115 
 C                     2.3705   -1.1822    6.9839 
 N                     0.225    -0.1187    6.2143 
 C                     0.6364    1.2631    6.5977 
 C                     1.5774    1.1657    7.8162 
 C                     2.7452    0.1652    7.6493 
 C                    -0.5498   -1.8146    4.8415 
 C                    -0.6666   -0.292     5.0416 
 C                     1.733    -2.2337    7.9571 
 C                     1.2038   -3.5026    7.1933 
 C                    -0.2221   -3.8467    7.5934 
 O                    -0.6544   -3.7074    8.7337 
 O                    -0.9029   -4.4823    6.6055 
 C                    -2.2362   -4.8515    6.9534 
 C                     1.8292   -5.7931    4.9417 
 O                    -0.4473   -0.6621    7.2784 
 H                    -0.5604   -0.9313    0.0347 
 H                     3.1835    1.2402    0.0067 
 H                     1.9692    3.379     0.0168 
 H                    -2.6679   -0.0231   -1.3225 
 H                    -1.2336    2.2973   -2.408 
 H                    -2.0587    3.8315   -2.5048 
 H                    -3.9933    2.8312   -3.1389 
 H                    -3.0903    1.3309   -3.2624 
 H                    -4.722    -1.7154   -0.6308 
 H                    -5.4514   -1.3749    0.9179 
 H                    -6.8309   -0.6335   -1.0388 
 H                    -6.4622    0.6911    0.0512 
 H                    -5.0742    0.025    -2.5957 
 H                    -6.1309    1.3989   -2.2974 
 H                    -1.7296    0.6673    2.1479 
 H                    -2.5179    2.2115    2.2342 
 H                    -3.8237   -0.1583    2.544 
 H                    -4.6542    1.1833    1.7608 
 H                    -5.2224    2.5293    0.3197 
 H                    -5.3084    3.4181   -1.1597 
 H                    -3.4803    4.6103   -0.7982 
 H                    -3.8664    6.3441    2.9184 
 H                    -2.5413    5.2548    3.4711 
 H                    -2.1676    6.827     2.7376 
 H                     0.0769    4.618    -1.5906 
 H                     0.416     5.2334    0.045 
 H                    -1.152     5.5255   -0.6976 
 H                     1.894    -1.8738   -0.8567 
 H                     3.2442   -1.1206   -0.0184 
 H                     1.6139   -0.5036    2.6462 
 H                     2.1632   -4.0288    0.1997 
 H                     1.7809   -5.4782    2.1507 
 H                     1.9889   -0.1944    5.0842 
 H                     3.6707   -3.2779    4.7816 
 H                     3.615    -4.0372    6.3404 
 H                     4.3617   -2.0674    7.1931 
 H                     4.1063   -1.2469    5.6617 
 H                    -0.2783    1.8152    6.8377 
 H                     1.1245    1.7205    5.731 
 H                     1.9806    2.1598    8.041 
 H                     0.9959    0.8671    8.6974 
 H                     3.5036    0.6635    7.03 
 H                     3.2172   -0.0107    8.6234 
 H                    -0.9737   -2.1003    3.8717 
 H                    -1.1443   -2.3214    5.6017 
 H                    -0.2544    0.2916    4.2127 
 H                    -1.6744    0.0442    5.3016 
 H                     0.975    -1.7887    8.6057 
 H                     2.5095   -2.5667    8.6617 
 H                     1.7609   -4.3652    7.5908 
 H                    -2.2281   -5.6076    7.7446 
 H                    -2.7096   -5.283     6.0672 
 H                    -2.8141   -3.9737    7.2597 
 H                     1.6603   -6.1328    5.9683 
 H                     1.3254   -6.5102    4.2848 
 H                     2.9054   -5.8317    4.7418 
 
 Stoichiometry    C45H56N4O5
 Framework group  C1[X(C45H56N4O5)]
 Deg. of freedom   324
 Full point group                 C1      NOp   1
 Largest Abelian subgroup         C1      NOp   1
 Largest concise Abelian subgroup C1      NOp   1
                         Standard orientation:                         
 ---------------------------------------------------------------------
 Center     Atomic      Atomic             Coordinates (Angstroms)
 Number     Number       Type             X           Y           Z
 ---------------------------------------------------------------------
      1          6           0       -1.789175   -1.672678   -1.595234
      2          6           0       -1.169146   -1.663084   -2.852866
      3          6           0       -1.562680   -0.706651   -3.812472
      4          6           0       -2.556598    0.239733   -3.530967
      5          6           0       -3.163810    0.225476   -2.287567
      6          6           0       -2.760374   -0.719388   -1.327896
      7          7           0       -4.195835    1.074687   -1.806948
      8          6           0       -3.480749   -0.432522   -0.033631
      9          6           0       -4.731146    0.306104   -0.652931
     10          6           0       -3.964955   -1.580635    0.863055
     11          6           0       -5.759531   -0.785596   -1.183654
     12          6           0       -6.271424   -1.670424   -0.039717
     13          6           0       -5.469239   -1.353383    1.237664
     14          7           0       -3.022634   -1.599559    1.983191
     15          6           0       -3.452837   -2.369516    3.141408
     16          6           0       -4.901510   -2.139026    3.570664
     17          6           0       -5.863303   -2.286827    2.391490
     18          6           0       -2.481192    0.355214    0.849163
     19          6           0       -2.596241   -0.234853    2.248418
     20          6           0       -5.815608    0.134147    1.587893
     21          6           0       -5.527430    1.094414    0.401692
     22          6           0       -4.939163    2.416730    0.860573
     23          8           0       -4.428137    2.618346    1.954951
     24          8           0       -5.123166    3.379910   -0.086104
     25          6           0       -4.579027    4.652864    0.261894
     26          6           0       -5.084465    1.655010   -2.802675
     27          6           0       -0.054803   -2.643217   -3.161443
     28          6           0        1.174422   -2.524095   -2.278560
     29          6           0        1.603091   -1.284571   -1.780029
     30          6           0        1.918993   -3.685592   -1.971068
     31          6           0        3.064032   -3.633226   -1.163981
     32          6           0        3.471462   -2.410200   -0.667908
     33          6           0        2.721184   -1.250558   -0.962619
     34          7           0        4.614610   -2.111667    0.123288
     35          6           0        3.303883   -0.110278   -0.157554
     36          6           0        4.773254   -0.655432   -0.117638
     37          6           0        3.360891    1.316943   -0.672580
     38          6           0        5.440172   -0.484262   -1.579931
     39          6           0        5.322176    0.951407   -2.099892
     40          6           0        4.770656    1.845633   -0.977307
     41          7           0        2.682926    2.167806    0.388004
     42          6           0        2.343222    3.483328   -0.228130
     43          6           0        3.658927    4.185098   -0.623287
     44          6           0        4.629679    3.312641   -1.453392
     45          6           0        2.355474   -0.019316    1.073747
     46          6           0        1.575012    1.285692    0.829151
     47          6           0        5.761999    1.642500    0.220672
     48          6           0        5.721771    0.172988    0.779661
     49          6           0        5.564469    0.149816    2.291744
     50          8           0        6.083901    0.976044    3.036128
     51          8           0        4.941164   -0.972006    2.734948
     52          6           0        4.802946   -1.047004    4.152799
     53          6           0        5.743418   -3.020951    0.068675
     54          8           0        3.432385    2.415450    1.508970
     55          1           0       -1.482368   -2.375842   -0.824519
     56          1           0       -1.083394   -0.686139   -4.789201
     57          1           0       -2.831827    0.968413   -4.284693
     58          1           0       -3.871882   -2.545375    0.345889
     59          1           0       -5.311591   -1.425079   -1.954537
     60          1           0       -6.617538   -0.303739   -1.669884
     61          1           0       -7.342384   -1.492797    0.120675
     62          1           0       -6.173917   -2.726701   -0.319472
     63          1           0       -3.336878   -3.432556    2.893110
     64          1           0       -2.780522   -2.194199    3.990095
     65          1           0       -5.168406   -2.867151    4.345780
     66          1           0       -5.004904   -1.149260    4.028411
     67          1           0       -5.845325   -3.329954    2.049882
     68          1           0       -6.888650   -2.084427    2.723181
     69          1           0       -1.446171    0.190964    0.516511
     70          1           0       -2.614700    1.436121    0.828828
     71          1           0       -1.627397   -0.212226    2.758912
     72          1           0       -3.301513    0.325726    2.863623
     73          1           0       -5.317915    0.452725    2.503995
     74          1           0       -6.887159    0.204700    1.824331
     75          1           0       -6.507577    1.369220   -0.017892
     76          1           0       -5.091369    5.060331    1.138960
     77          1           0       -3.501966    4.575362    0.441433
     78          1           0       -4.740550    5.331588   -0.580094
     79          1           0       -5.487970    0.898288   -3.484915
     80          1           0       -4.555553    2.411831   -3.391756
     81          1           0       -5.929747    2.157596   -2.322944
     82          1           0       -0.477647   -3.652860   -3.075462
     83          1           0        0.271021   -2.530009   -4.203201
     84          1           0        1.044536   -0.377804   -1.987722
     85          1           0        1.600931   -4.651807   -2.358461
     86          1           0        3.609181   -4.542852   -0.941290
     87          1           0        2.723137    1.406398   -1.564645
     88          1           0        5.013862   -1.161634   -2.330007
     89          1           0        6.501676   -0.764059   -1.531359
     90          1           0        6.300359    1.306012   -2.447354
     91          1           0        4.659097    0.971039   -2.974314
     92          1           0        1.790484    4.056476    0.523583
     93          1           0        1.698057    3.292684   -1.091867
     94          1           0        3.426601    5.099972   -1.180396
     95          1           0        4.182367    4.507263    0.285579
     96          1           0        4.252123    3.312017   -2.485117
     97          1           0        5.613413    3.795809   -1.490970
     98          1           0        1.658964   -0.856938    1.196597
     99          1           0        2.907955    0.064974    2.009610
    100          1           0        0.850575    1.216179    0.011880
    101          1           0        1.117961    1.703643    1.730657
    102          1           0        5.622626    2.392234    1.002813
    103          1           0        6.783182    1.835606   -0.140160
    104          1           0        6.734909   -0.239832    0.654862
    105          1           0        5.785390   -1.132061    4.627477
    106          1           0        4.225526   -1.945002    4.389092
    107          1           0        4.259511   -0.177362    4.535844
    108          1           0        6.573444   -2.635820    0.669143
    109          1           0        5.474112   -3.995307    0.490184
    110          1           0        6.102804   -3.169930   -0.955192
 ---------------------------------------------------------------------
 Rotational constants (GHZ):           0.0885583           0.0321622           0.0313472
 Standard basis: STO-3G (5D, 7F)
 There are   326 symmetry adapted cartesian basis functions of A   symmetry.
 There are   326 symmetry adapted basis functions of A   symmetry.
   326 basis functions,   978 primitive gaussians,   326 cartesian basis functions
   197 alpha electrons      197 beta electrons
       nuclear repulsion energy      8113.2053680215 Hartrees.
 NAtoms=  110 NActive=  110 NUniq=  110 SFac= 1.00D+00 NAtFMM=   60 NAOKFM=T Big=T
 Integral buffers will be    131072 words long.
 Raffenetti 1 integral format.
 Two-electron integral symmetry is turned on.
 One-electron integrals computed using PRISM.
 NBasis=   326 RedAO= T EigKep=  1.73D-01  NBF=   326
 NBsUse=   326 1.00D-06 EigRej= -1.00D+00 NBFU=   326
 ExpMin= 1.69D-01 ExpMax= 1.31D+02 ExpMxC= 1.31D+02 IAcc=3 IRadAn=         5 AccDes= 0.00D+00
 Harris functional with IExCor=  205 and IRadAn=       5 diagonalized for initial guess.
 HarFok:  IExCor=  205 AccDes= 0.00D+00 IRadAn=         5 IDoV= 1 UseB2=F ITyADJ=14
 ICtDFT=  3500011 ScaDFX=  1.000000  1.000000  1.000000  1.000000
 FoFCou: FMM=F IPFlag=           0 FMFlag=      100000 FMFlg1=        2001
         NFxFlg=           0 DoJE=T BraDBF=F KetDBF=T FulRan=T
         wScrn=  0.000000 ICntrl=       500 IOpCl=  0 I1Cent=   200000004 NGrid=           0
         NMat0=    1 NMatS0=      1 NMatT0=    0 NMatD0=    1 NMtDS0=    0 NMtDT0=    0
 Petite list used in FoFCou.
 Requested convergence on RMS density matrix=1.00D-08 within 128 cycles.
 Requested convergence on MAX density matrix=1.00D-06.
 Requested convergence on             energy=1.00D-06.
 No special actions if energy rises.
 Integral accuracy reduced to 1.0D-05 until final iterations.
 Initial convergence to 1.0D-05 achieved.  Increase integral accuracy.
 SCF Done:  E(RHF) =  -2300.19850375     A.U. after   16 cycles
            NFock= 16  Conv=0.39D-08     -V/T= 2.0093
 Range of M.O.s used for correlation:     1   326
 NBasis=   326 NAE=   197 NBE=   197 NFC=     0 NFV=     0
 NROrb=    326 NOA=   197 NOB=   197 NVA=   129 NVB=   129
          Differentiating once with respect to magnetic field using GIAOs.
          Electric field/nuclear overlap derivatives assumed to be zero.
 FoFCou: FMM=F IPFlag=           0 FMFlag=      100000 FMFlg1=        2001
         NFxFlg=           0 DoJE=F BraDBF=F KetDBF=T FulRan=T
         wScrn=  0.000000 ICntrl=      6100 IOpCl=  0 I1Cent=           7 NGrid=         110
         NMat0=    1 NMatS0=      1 NMatT0=    0 NMatD0=    1 NMtDS0=    0 NMtDT0=    0
 Symmetry not used in FoFCou.
 FoFJK:  IHMeth= 1 ICntrl=    6127 DoSepK=F KAlg= 0 I1Cent=           0 FoldK=F
 IRaf=         1 NMat=       1 IRICut=       1 DoRegI=T DoRafI=F ISym2E= 0 IDoP0=0 IntGTp=1.
          There are     3 degrees of freedom in the 1st order CPHF.  IDoFFX=0 NUNeed=     3.
      3 vectors produced by pass  0 Test12= 8.47D-13 3.33D-08 XBig12= 1.69D+02 1.99D+00.
 AX will form     3 AO Fock derivatives at one time.
      3 vectors produced by pass  1 Test12= 8.47D-13 3.33D-08 XBig12= 6.08D-01 2.44D-01.
      3 vectors produced by pass  2 Test12= 8.47D-13 3.33D-08 XBig12= 1.79D-02 3.44D-02.
      3 vectors produced by pass  3 Test12= 8.47D-13 3.33D-08 XBig12= 4.14D-04 5.74D-03.
      3 vectors produced by pass  4 Test12= 8.47D-13 3.33D-08 XBig12= 1.57D-05 1.04D-03.
      3 vectors produced by pass  5 Test12= 8.47D-13 3.33D-08 XBig12= 3.17D-07 1.29D-04.
      3 vectors produced by pass  6 Test12= 8.47D-13 3.33D-08 XBig12= 1.26D-08 3.00D-05.
      3 vectors produced by pass  7 Test12= 8.47D-13 3.33D-08 XBig12= 3.41D-10 2.75D-06.
      3 vectors produced by pass  8 Test12= 8.47D-13 3.33D-08 XBig12= 8.35D-12 6.47D-07.
      2 vectors produced by pass  9 Test12= 8.47D-13 3.33D-08 XBig12= 3.84D-13 1.62D-07.
 InvSVY:  IOpt=1 It=  1 EMax= 3.55D-15
 Solved reduced A of dimension    29 with     3 vectors.
 Calculating GIAO nuclear magnetic shielding tensors.
 SCF GIAO Magnetic shielding tensor (ppm):
      1  C    Isotropic =   123.5129   Anisotropy =   156.1177
   XX=   164.3405   YX=    68.4199   ZX=     9.1838
   XY=    62.8927   YY=   126.7848   ZY=    55.5978
   XZ=     6.8579   YZ=    66.3908   ZZ=    79.4133
   Eigenvalues:    29.2560   113.6913   227.5913
      2  C    Isotropic =   118.3045   Anisotropy =   163.7342
   XX=   122.8646   YX=    86.4738   ZX=    43.7685
   XY=    81.2485   YY=   128.4078   ZY=    22.9636
   XZ=    38.7060   YZ=    27.9108   ZZ=   103.6413
   Eigenvalues:    38.9698    88.4832   227.4606
      3  C    Isotropic =   118.6916   Anisotropy =   152.1802
   XX=   143.6629   YX=    48.9610   ZX=    65.6791
   XY=    44.1581   YY=   153.1147   ZY=    29.6823
   XZ=    60.6653   YZ=    23.0812   ZZ=    59.2972
   Eigenvalues:    25.5029   110.4268   220.1451
      4  C    Isotropic =   133.8095   Anisotropy =   143.9542
   XX=   172.1272   YX=    59.5689   ZX=    11.2194
   XY=    58.3982   YY=   131.1740   ZY=    57.1968
   XZ=    18.3556   YZ=    52.4268   ZZ=    98.1273
   Eigenvalues:    51.6391   120.0105   229.7790
      5  C    Isotropic =   108.8908   Anisotropy =   128.8168
   XX=   119.9246   YX=    68.2011   ZX=    24.9716
   XY=    75.3397   YY=   108.3676   ZY=     7.0668
   XZ=    26.5785   YZ=    21.9427   ZZ=    98.3803
   Eigenvalues:    41.2392    90.6645   194.7687
      6  C    Isotropic =   116.9579   Anisotropy =   143.1290
   XX=   153.7326   YX=    49.2353   ZX=    43.6880
   XY=    53.1428   YY=   128.9873   ZY=    32.2023
   XZ=    44.6201   YZ=    21.8019   ZZ=    68.1537
   Eigenvalues:    49.0036    89.4928   212.3772
      7  N    Isotropic =   273.9787   Anisotropy =    82.2989
   XX=   305.8696   YX=   -18.0848   ZX=   -23.3554
   XY=   -20.2999   YY=   257.8369   ZY=     4.0711
   XZ=   -41.8579   YZ=    14.6111   ZZ=   258.2296
   Eigenvalues:   241.6566   251.4348   328.8446
      8  C    Isotropic =   195.9283   Anisotropy =    11.5528
   XX=   190.6000   YX=    -0.7701   ZX=     6.0242
   XY=     1.0532   YY=   199.2184   ZY=    -0.6826
   XZ=     2.9873   YZ=    -7.9256   ZZ=   197.9665
   Eigenvalues:   188.0719   196.0828   203.6302
      9  C    Isotropic =   181.0298   Anisotropy =    44.7401
   XX=   173.4928   YX=   -12.7850   ZX=   -16.8144
   XY=     0.5639   YY=   177.9366   ZY=   -27.5756
   XZ=    -8.0194   YZ=   -20.3512   ZZ=   191.6600
   Eigenvalues:   152.3969   179.8361   210.8565
     10  C    Isotropic =   190.5510   Anisotropy =    28.8111
   XX=   191.3361   YX=     5.9983   ZX=    12.7511
   XY=     3.7513   YY=   177.3527   ZY=    -7.5574
   XZ=     9.2055   YZ=    -3.8533   ZZ=   202.9641
   Eigenvalues:   172.9103   188.9842   209.7584
     11  C    Isotropic =   213.7337   Anisotropy =    20.0900
   XX=   214.8118   YX=    10.5488   ZX=     3.7745
   XY=    11.4821   YY=   215.2003   ZY=     5.5031
   XZ=     4.1864   YZ=    -1.5990   ZZ=   211.1891
   Eigenvalues:   203.6677   210.4064   227.1271
     12  C    Isotropic =   212.8884   Anisotropy =    20.8965
   XX=   208.9906   YX=     3.3196   ZX=     7.8780
   XY=     3.1944   YY=   207.2299   ZY=    -0.3262
   XZ=     9.2740   YZ=     1.5467   ZZ=   222.4447
   Eigenvalues:   203.0522   208.7935   226.8194
     13  C    Isotropic =   213.6943   Anisotropy =     9.0656
   XX=   212.2267   YX=     2.0034   ZX=    -3.8211
   XY=     5.3660   YY=   217.5046   ZY=     0.4057
   XZ=    -1.8549   YZ=    -1.1514   ZZ=   211.3516
   Eigenvalues:   208.3368   213.0081   219.7381
     14  N    Isotropic =   303.2118   Anisotropy =    53.4925
   XX=   274.1075   YX=    22.2977   ZX=    38.9019
   XY=    36.4092   YY=   315.1566   ZY=   -20.0595
   XZ=    30.0633   YZ=    -8.7565   ZZ=   320.3712
   Eigenvalues:   241.2613   329.5006   338.8735
     15  C    Isotropic =   205.3884   Anisotropy =    35.2569
   XX=   201.4910   YX=     1.5842   ZX=    -6.9013
   XY=     1.5355   YY=   202.8838   ZY=   -17.2069
   XZ=    -7.9351   YZ=   -21.5088   ZZ=   211.7904
   Eigenvalues:   186.6317   200.6405   228.8930
     16  C    Isotropic =   224.2701   Anisotropy =     8.4804
   XX=   227.5486   YX=    -1.5421   ZX=     2.6988
   XY=    -0.2061   YY=   219.9192   ZY=    -6.0163
   XZ=     2.3081   YZ=    -0.8150   ZZ=   225.3427
   Eigenvalues:   218.2590   224.6276   229.9237
     17  C    Isotropic =   215.3438   Anisotropy =    19.9764
   XX=   209.0110   YX=     3.9247   ZX=    -1.5297
   XY=    -0.0015   YY=   215.3746   ZY=    -8.3761
   XZ=     0.9022   YZ=   -10.7212   ZZ=   221.6459
   Eigenvalues:   207.2658   210.1042   228.6614
     18  C    Isotropic =   210.5091   Anisotropy =    36.2941
   XX=   210.5976   YX=    13.1974   ZX=    10.8157
   XY=    13.5799   YY=   194.7693   ZY=     9.8451
   XZ=     9.7749   YZ=     1.9413   ZZ=   226.1604
   Eigenvalues:   187.1306   209.6915   234.7052
     19  C    Isotropic =   200.0391   Anisotropy =    41.8160
   XX=   185.7240   YX=    17.1908   ZX=     3.6542
   XY=    22.4644   YY=   218.5266   ZY=    -2.3516
   XZ=     6.3988   YZ=    -5.3843   ZZ=   195.8665
   Eigenvalues:   174.5868   197.6140   227.9164
     20  C    Isotropic =   212.2297   Anisotropy =    20.9108
   XX=   204.9793   YX=     0.0889   ZX=    -7.5929
   XY=    -0.9748   YY=   225.8072   ZY=    -2.4381
   XZ=    -6.0415   YZ=    -2.9040   ZZ=   205.9026
   Eigenvalues:   198.4384   212.0804   226.1702
     21  C    Isotropic =   209.1230   Anisotropy =     9.6059
   XX=   208.9134   YX=     2.6943   ZX=    -6.4588
   XY=     2.7453   YY=   212.9509   ZY=     0.8019
   XZ=    -4.6632   YZ=     9.3549   ZZ=   205.5047
   Eigenvalues:   199.0473   212.7949   215.5269
     22  C    Isotropic =    96.5241   Anisotropy =    98.6413
   XX=   152.9105   YX=   -19.0275   ZX=     1.5425
   XY=   -28.7798   YY=   -11.5504   ZY=    38.7750
   XZ=     8.5311   YZ=    58.5520   ZZ=   148.2123
   Eigenvalues:   -28.4819   155.7692   162.2850
     23  O    Isotropic =  -135.2535   Anisotropy =   890.1152
   XX=   267.6816   YX=  -154.0166   ZX=  -351.3534
   XY=  -167.5843   YY=  -253.9976   ZY=    37.8505
   XZ=  -362.5095   YZ=    53.2526   ZZ=  -419.4445
   Eigenvalues:  -572.8158  -291.1013   458.1567
     24  O    Isotropic =   283.7047   Anisotropy =   140.0223
   XX=   314.4278   YX=   -99.1855   ZX=   -29.3417
   XY=   -55.5878   YY=   235.9694   ZY=   -34.7040
   XZ=   -73.5518   YZ=  -171.1520   ZZ=   300.7168
   Eigenvalues:   116.8215   357.2396   377.0529
     25  C    Isotropic =   197.3650   Anisotropy =    56.8852
   XX=   185.6997   YX=    16.9916   ZX=     3.6456
   XY=    17.0057   YY=   227.2256   ZY=    10.1282
   XZ=     2.9429   YZ=     9.9724   ZZ=   179.1697
   Eigenvalues:   177.1477   179.6588   235.2884
     26  C    Isotropic =   209.8624   Anisotropy =    41.6656
   XX=   208.0132   YX=   -10.5755   ZX=    17.8340
   XY=   -12.0682   YY=   206.7503   ZY=   -10.1966
   XZ=    17.5549   YZ=   -12.3530   ZZ=   214.8237
   Eigenvalues:   193.0439   198.9039   237.6395
     27  C    Isotropic =   206.3373   Anisotropy =    21.4721
   XX=   213.1427   YX=   -10.0231   ZX=     3.4384
   XY=   -11.4302   YY=   204.1512   ZY=     5.6480
   XZ=     8.5465   YZ=     3.3045   ZZ=   201.7180
   Eigenvalues:   191.8629   206.4970   220.6521
     28  C    Isotropic =   118.3221   Anisotropy =   159.8637
   XX=    97.1551   YX=    -0.7041   ZX=   -88.3826
   XY=     4.9819   YY=    91.4168   ZY=   -16.7948
   XZ=   -80.2226   YZ=   -19.5135   ZZ=   166.3946
   Eigenvalues:    39.2713    90.7972   224.8979
     29  C    Isotropic =   127.9927   Anisotropy =   151.3981
   XX=   140.7874   YX=    47.0414   ZX=   -58.3307
   XY=    46.4529   YY=    61.4910   ZY=     2.8241
   XZ=   -58.6249   YZ=   -10.1287   ZZ=   181.6996
   Eigenvalues:    36.1367   118.9165   228.9248
     30  C    Isotropic =   118.5130   Anisotropy =   152.7541
   XX=   139.2589   YX=   -16.8738   ZX=   -61.3527
   XY=   -15.7994   YY=    48.1418   ZY=   -40.8591
   XZ=   -64.6004   YZ=   -31.7474   ZZ=   168.1383
   Eigenvalues:    26.4185   108.7714   220.3491
     31  C    Isotropic =   133.7149   Anisotropy =   143.4132
   XX=   138.9212   YX=    43.4991   ZX=   -56.5797
   XY=    34.3620   YY=    74.1154   ZY=    -3.1203
   XZ=   -57.4371   YZ=    -1.7801   ZZ=   188.1081
   Eigenvalues:    51.4913   120.3297   229.3237
     32  C    Isotropic =   108.3534   Anisotropy =   129.7705
   XX=    88.2682   YX=    12.8224   ZX=   -68.4467
   XY=    16.1444   YY=    93.4991   ZY=    -8.5597
   XZ=   -69.5912   YZ=   -25.0135   ZZ=   143.2930
   Eigenvalues:    41.3452    88.8480   194.8671
     33  C    Isotropic =   117.5657   Anisotropy =   142.2399
   XX=   135.9987   YX=     2.6278   ZX=   -60.6658
   XY=     0.1000   YY=    57.6604   ZY=   -32.3561
   XZ=   -61.1783   YZ=   -19.8019   ZZ=   159.0381
   Eigenvalues:    48.3903    91.9145   212.3923
     34  N    Isotropic =   272.0064   Anisotropy =    83.9570
   XX=   298.9691   YX=    27.2228   ZX=    15.6657
   XY=    44.9217   YY=   259.8584   ZY=    11.8331
   XZ=    26.8555   YZ=     6.9643   ZZ=   257.1916
   Eigenvalues:   237.7773   250.2641   327.9777
     35  C    Isotropic =   200.9780   Anisotropy =    14.2362
   XX=   198.6606   YX=    -8.7836   ZX=     4.2832
   XY=    -6.7452   YY=   200.9248   ZY=    -8.4123
   XZ=     0.0141   YZ=     0.3076   ZZ=   203.3485
   Eigenvalues:   191.8435   200.6216   210.4688
     36  C    Isotropic =   178.9134   Anisotropy =    38.3126
   XX=   175.0786   YX=    -3.3778   ZX=    18.5993
   XY=    -3.5500   YY=   202.2506   ZY=    -1.0651
   XZ=     4.7322   YZ=   -13.2231   ZZ=   159.4111
   Eigenvalues:   152.7382   179.5469   204.4552
     37  C    Isotropic =   184.0457   Anisotropy =    42.4211
   XX=   176.9800   YX=    -9.9037   ZX=   -19.3623
   XY=    -9.0208   YY=   188.9584   ZY=    11.2835
   XZ=   -25.6895   YZ=     7.9784   ZZ=   186.1989
   Eigenvalues:   158.5386   181.2722   212.3264
     38  C    Isotropic =   210.9520   Anisotropy =    23.7382
   XX=   206.1698   YX=     5.2116   ZX=    -7.9420
   XY=     2.3395   YY=   206.2745   ZY=    -6.1743
   XZ=   -13.0745   YZ=     1.0899   ZZ=   220.4118
   Eigenvalues:   199.8107   206.2679   226.7775
     39  C    Isotropic =   212.7473   Anisotropy =    19.9639
   XX=   205.3813   YX=    -7.5129   ZX=    -3.8090
   XY=    -4.0836   YY=   217.2988   ZY=     9.0713
   XZ=    -3.9021   YZ=     5.4656   ZZ=   215.5620
   Eigenvalues:   202.9445   209.2409   226.0566
     40  C    Isotropic =   211.5779   Anisotropy =    11.5449
   XX=   208.4267   YX=     4.0378   ZX=    -0.1449
   XY=     3.4075   YY=   216.8856   ZY=    -3.6438
   XZ=    -0.5664   YZ=    -2.7264   ZZ=   209.4212
   Eigenvalues:   206.6914   208.7677   219.2745
     41  N    Isotropic =   235.6047   Anisotropy =    24.7492
   XX=   247.3796   YX=     4.9369   ZX=     9.9670
   XY=   -10.4134   YY=   224.6873   ZY=     5.8095
   XZ=     5.4021   YZ=    25.5020   ZZ=   234.7472
   Eigenvalues:   211.9678   242.7421   252.1041
     42  C    Isotropic =   194.1193   Anisotropy =    49.3778
   XX=   184.3826   YX=    -7.4980   ZX=     2.1836
   XY=   -11.1954   YY=   216.0977   ZY=   -21.6476
   XZ=     4.1380   YZ=   -16.9414   ZZ=   181.8774
   Eigenvalues:   173.1032   182.2168   227.0378
     43  C    Isotropic =   219.3904   Anisotropy =    11.4526
   XX=   221.8101   YX=     0.9546   ZX=    -7.5682
   XY=     1.8717   YY=   225.1192   ZY=     1.7015
   XZ=    -9.2181   YZ=    -0.8773   ZZ=   211.2417
   Eigenvalues:   206.5490   224.5967   227.0254
     44  C    Isotropic =   214.9087   Anisotropy =    22.3794
   XX=   205.9678   YX=    -1.7801   ZX=    -3.9457
   XY=    -4.9984   YY=   228.6663   ZY=    -4.7692
   XZ=    -2.2199   YZ=    -3.3619   ZZ=   210.0919
   Eigenvalues:   203.3525   211.5453   229.8283
     45  C    Isotropic =   206.6964   Anisotropy =    34.5424
   XX=   205.1941   YX=   -11.5260   ZX=   -21.0033
   XY=    -4.5540   YY=   211.6123   ZY=     3.3457
   XZ=   -23.8456   YZ=     1.1358   ZZ=   203.2829
   Eigenvalues:   181.2600   209.1046   229.7247
     46  C    Isotropic =   191.1877   Anisotropy =    54.5334
   XX=   204.0072   YX=    14.0943   ZX=   -21.9067
   XY=    24.0847   YY=   200.6585   ZY=    -4.3606
   XZ=   -16.3718   YZ=    -8.9195   ZZ=   168.8974
   Eigenvalues:   160.4020   185.6178   227.5433
     47  C    Isotropic =   211.1570   Anisotropy =    24.4049
   XX=   205.0790   YX=     0.8348   ZX=    11.5895
   XY=     1.9818   YY=   212.7545   ZY=   -10.2901
   XZ=    10.6718   YZ=   -10.2004   ZZ=   215.6377
   Eigenvalues:   195.1422   210.9019   227.4270
     48  C    Isotropic =   207.6663   Anisotropy =    11.5940
   XX=   204.1630   YX=     1.6527   ZX=     1.6161
   XY=     1.3538   YY=   203.9226   ZY=     4.1100
   XZ=     2.6354   YZ=    -2.7795   ZZ=   214.9133
   Eigenvalues:   202.4532   205.1500   215.3956
     49  C    Isotropic =    98.5364   Anisotropy =   103.5333
   XX=   137.8011   YX=   -34.2818   ZX=    58.9880
   XY=   -28.3117   YY=   110.3527   ZY=    92.0485
   XZ=    46.7594   YZ=    69.5807   ZZ=    47.4555
   Eigenvalues:   -30.1998   158.2505   167.5586
     50  O    Isotropic =  -132.6397   Anisotropy =   875.3403
   XX=   210.1525   YX=  -401.1168   ZX=   -48.6474
   XY=  -409.4580   YY=  -231.4983   ZY=  -102.5110
   XZ=   -69.1186   YZ=  -120.8702   ZZ=  -376.5731
   Eigenvalues:  -559.2697  -289.5699   450.9206
     51  O    Isotropic =   286.4001   Anisotropy =   131.7371
   XX=   358.3668   YX=    -3.1472   ZX=   -63.6152
   XY=     3.4061   YY=   362.6005   ZY=  -106.7842
   XZ=    20.5306   YZ=     9.0979   ZZ=   138.2331
   Eigenvalues:   126.1502   358.8253   374.2248
     52  C    Isotropic =   197.5790   Anisotropy =    57.5591
   XX=   179.4920   YX=    -0.8819   ZX=    -5.5903
   XY=    -0.0046   YY=   178.5918   ZY=    -6.9906
   XZ=    -5.0420   YZ=    -6.6240   ZZ=   234.6531
   Eigenvalues:   177.1604   179.6248   235.9517
     53  C    Isotropic =   210.7695   Anisotropy =    42.1825
   XX=   220.2664   YX=   -22.2818   ZX=    -0.2043
   XY=   -21.7747   YY=   212.8063   ZY=    -1.6534
   XZ=     0.7726   YZ=     0.1033   ZZ=   199.2358
   Eigenvalues:   194.1615   199.2558   238.8911
     54  O    Isotropic =    79.3783   Anisotropy =   397.7614
   XX=    40.9748   YX=    49.8333   ZX=   170.6158
   XY=    36.6266   YY=   -43.2446   ZY=    62.1929
   XZ=   145.4214   YZ=    75.6293   ZZ=   240.4046
   Eigenvalues:   -61.5604   -44.8572   344.5525
     55  H    Isotropic =    26.0962   Anisotropy =    15.2921
   XX=    30.5275   YX=    -4.1424   ZX=    -5.3467
   XY=    -3.5219   YY=    22.9951   ZY=     1.7848
   XZ=    -7.8681   YZ=     2.4601   ZZ=    24.7660
   Eigenvalues:    20.3591    21.6385    36.2909
     56  H    Isotropic =    25.7075   Anisotropy =     5.6576
   XX=    25.0974   YX=    -3.5825   ZX=     0.4045
   XY=    -3.7073   YY=    24.9850   ZY=    -1.3657
   XZ=     0.5886   YZ=    -1.5417   ZZ=    27.0401
   Eigenvalues:    21.3095    26.3337    29.4793
     57  H    Isotropic =    26.5218   Anisotropy =     7.4539
   XX=    26.5367   YX=    -3.1543   ZX=    -3.4181
   XY=    -3.5413   YY=    23.8940   ZY=    -1.2120
   XZ=    -3.2127   YZ=    -1.5534   ZZ=    29.1346
   Eigenvalues:    20.5076    27.5666    31.4910
     58  H    Isotropic =    31.6246   Anisotropy =     8.6574
   XX=    29.4518   YX=    -1.2328   ZX=    -2.2013
   XY=    -2.0657   YY=    35.1173   ZY=     1.8458
   XZ=    -1.9922   YZ=     4.4002   ZZ=    30.3047
   Eigenvalues:    27.6356    29.8419    37.3962
     59  H    Isotropic =    32.9141   Anisotropy =     8.7823
   XX=    31.6000   YX=     0.8600   ZX=    -3.1561
   XY=     3.4721   YY=    31.5361   ZY=     4.4104
   XZ=    -0.6363   YZ=     5.1037   ZZ=    35.6062
   Eigenvalues:    26.7242    33.2492    38.7690
     60  H    Isotropic =    32.1670   Anisotropy =    13.6765
   XX=    36.4938   YX=    -0.8773   ZX=     5.9025
   XY=     0.8557   YY=    28.0038   ZY=    -4.4341
   XZ=     6.4025   YZ=    -4.1007   ZZ=    32.0035
   Eigenvalues:    24.1796    31.0368    41.2847
     61  H    Isotropic =    32.3657   Anisotropy =    15.5147
   XX=    42.3122   YX=     2.4698   ZX=     0.6217
   XY=     2.4584   YY=    26.5858   ZY=    -1.2093
   XZ=     0.8124   YZ=    -1.1294   ZZ=    28.1993
   Eigenvalues:    25.5918    28.7966    42.7088
     62  H    Isotropic =    32.6024   Anisotropy =    13.8195
   XX=    28.3122   YX=     3.8946   ZX=     0.7767
   XY=     4.4122   YY=    39.4114   ZY=     2.8482
   XZ=     1.5407   YZ=     3.6789   ZZ=    30.0837
   Eigenvalues:    26.9280    29.0639    41.8155
     63  H    Isotropic =    31.9214   Anisotropy =    14.2792
   XX=    28.5493   YX=    -3.1498   ZX=    -1.1114
   XY=    -3.9879   YY=    39.9029   ZY=    -2.6659
   XZ=    -0.8888   YZ=    -3.4477   ZZ=    27.3120
   Eigenvalues:    25.3515    28.9718    41.4409
     64  H    Isotropic =    31.8979   Anisotropy =    14.4190
   XX=    33.1130   YX=     0.2505   ZX=     5.5307
   XY=     0.1864   YY=    25.9553   ZY=    -3.4368
   XZ=     6.2561   YZ=    -3.6956   ZZ=    36.6254
   Eigenvalues:    24.3048    29.8784    41.5105
     65  H    Isotropic =    32.6800   Anisotropy =    18.1664
   XX=    29.1516   YX=     2.5974   ZX=    -3.1919
   XY=     2.7845   YY=    30.9051   ZY=    -8.8028
   XZ=    -3.3054   YZ=    -8.2253   ZZ=    37.9833
   Eigenvalues:    25.1616    28.0875    44.7909
     66  H    Isotropic =    32.5861   Anisotropy =    10.3810
   XX=    28.0370   YX=    -1.0660   ZX=    -2.0735
   XY=    -1.1579   YY=    33.7168   ZY=     4.1293
   XZ=    -1.9968   YZ=     3.9256   ZZ=    36.0045
   Eigenvalues:    27.5427    30.7088    39.5067
     67  H    Isotropic =    32.6880   Anisotropy =    13.5142
   XX=    28.2760   YX=     4.2855   ZX=     0.4937
   XY=     4.3703   YY=    40.3005   ZY=    -0.3839
   XZ=     0.6111   YZ=    -0.2272   ZZ=    29.4874
   Eigenvalues:    26.7405    29.6259    41.6974
     68  H    Isotropic =    32.5101   Anisotropy =    15.1367
   XX=    40.1660   YX=     1.6290   ZX=    -4.9337
   XY=     1.0375   YY=    26.8596   ZY=    -2.6520
   XZ=    -4.9986   YZ=    -2.7852   ZZ=    30.5048
   Eigenvalues:    25.2878    29.6413    42.6013
     69  H    Isotropic =    32.7855   Anisotropy =    18.6037
   XX=    44.5605   YX=     1.6349   ZX=    -0.7189
   XY=     2.6390   YY=    23.5775   ZY=     2.2001
   XZ=    -4.5766   YZ=     1.0812   ZZ=    30.2185
   Eigenvalues:    22.8538    30.3148    45.1880
     70  H    Isotropic =    33.0595   Anisotropy =     8.8072
   XX=    33.0781   YX=    -0.2136   ZX=     2.2869
   XY=     0.5634   YY=    38.8648   ZY=     0.7546
   XZ=     0.3786   YZ=     0.8315   ZZ=    27.2356
   Eigenvalues:    26.9003    33.3472    38.9309
     71  H    Isotropic =    32.0470   Anisotropy =    15.2829
   XX=    38.4645   YX=     2.4932   ZX=     5.8453
   XY=     4.5604   YY=    25.5798   ZY=     0.2937
   XZ=     5.1695   YZ=    -0.0128   ZZ=    32.0967
   Eigenvalues:    24.4151    29.4903    42.2356
     72  H    Isotropic =    31.9991   Anisotropy =     8.4907
   XX=    30.5605   YX=    -1.1488   ZX=    -0.9811
   XY=    -0.7604   YY=    31.7929   ZY=     4.5064
   XZ=    -2.2186   YZ=     4.2228   ZZ=    33.6439
   Eigenvalues:    28.2208    30.1169    37.6596
     73  H    Isotropic =    31.4197   Anisotropy =     8.9897
   XX=    27.5129   YX=     0.2214   ZX=     1.6660
   XY=    -0.3947   YY=    30.7821   ZY=     3.3820
   XZ=     1.6639   YZ=     2.2143   ZZ=    35.9642
   Eigenvalues:    27.0696    29.7767    37.4129
     74  H    Isotropic =    32.2361   Anisotropy =    15.1304
   XX=    39.1373   YX=    -2.5554   ZX=    -6.1016
   XY=    -3.2936   YY=    28.7328   ZY=    -0.7007
   XZ=    -6.0052   YZ=    -1.1144   ZZ=    28.8383
   Eigenvalues:    24.8617    29.5237    42.3231
     75  H    Isotropic =    31.1916   Anisotropy =    12.5885
   XX=    35.9055   YX=    -4.7721   ZX=     3.1924
   XY=    -4.6925   YY=    30.5129   ZY=    -2.5826
   XZ=     1.4513   YZ=    -2.8799   ZZ=    27.1564
   Eigenvalues:    25.6156    28.3753    39.5839
     76  H    Isotropic =    30.5686   Anisotropy =    11.6294
   XX=    27.3659   YX=    -2.7088   ZX=    -2.4063
   XY=    -2.6657   YY=    33.6121   ZY=     4.2547
   XZ=    -3.0989   YZ=     4.9694   ZZ=    30.7278
   Eigenvalues:    25.8193    27.5650    38.3215
     77  H    Isotropic =    30.6639   Anisotropy =     8.1432
   XX=    35.1287   YX=     2.3941   ZX=     1.0260
   XY=     1.3736   YY=    31.3520   ZY=     0.7129
   XZ=     1.3683   YZ=     0.8166   ZZ=    25.5110
   Eigenvalues:    25.3146    30.5844    36.0927
     78  H    Isotropic =    30.5503   Anisotropy =    11.7225
   XX=    25.8975   YX=    -0.5474   ZX=     0.5983
   XY=    -1.1375   YY=    35.6343   ZY=    -5.0263
   XZ=     0.6924   YZ=    -4.2593   ZZ=    30.1192
   Eigenvalues:    25.7966    27.4891    38.3653
     79  H    Isotropic =    31.8570   Anisotropy =    12.1234
   XX=    30.7139   YX=     0.0881   ZX=     5.3067
   XY=     2.0478   YY=    28.4605   ZY=     1.3879
   XZ=     5.6925   YZ=     0.8031   ZZ=    36.3965
   Eigenvalues:    27.2513    28.3803    39.9393
     80  H    Isotropic =    30.7181   Anisotropy =    13.8554
   XX=    26.9563   YX=    -0.2768   ZX=    -1.9608
   XY=     0.3815   YY=    32.5911   ZY=    -7.0727
   XZ=    -1.7545   YZ=    -7.3560   ZZ=    32.6070
   Eigenvalues:    24.6426    27.5567    39.9551
     81  H    Isotropic =    30.8656   Anisotropy =    10.7416
   XX=    32.1350   YX=    -7.1287   ZX=    -0.1832
   XY=    -6.2967   YY=    30.0953   ZY=    -0.9694
   XZ=     0.4759   YZ=    -1.6415   ZZ=    30.3664
   Eigenvalues:    24.1944    30.3757    38.0266
     82  H    Isotropic =    29.9015   Anisotropy =    11.0871
   XX=    28.6560   YX=     2.5635   ZX=     1.5663
   XY=    -0.4428   YY=    36.9078   ZY=     1.4819
   XZ=    -0.4168   YZ=     2.0336   ZZ=    24.1407
   Eigenvalues:    23.8642    28.5475    37.2929
     83  H    Isotropic =    30.2043   Anisotropy =    11.2605
   XX=    27.0888   YX=    -2.5010   ZX=    -2.6227
   XY=    -2.9841   YY=    25.9674   ZY=     0.5285
   XZ=     0.7385   YZ=     0.7572   ZZ=    37.5566
   Eigenvalues:    23.7281    29.1734    37.7113
     84  H    Isotropic =    27.4129   Anisotropy =    16.8729
   XX=    33.8411   YX=     2.7018   ZX=     5.3302
   XY=     5.7778   YY=    24.3586   ZY=     3.6743
   XZ=     6.6269   YZ=     3.2686   ZZ=    24.0390
   Eigenvalues:    20.4144    23.1628    38.6615
     85  H    Isotropic =    25.5804   Anisotropy =     6.3873
   XX=    26.6763   YX=    -2.4855   ZX=     2.9808
   XY=    -2.2070   YY=    27.3818   ZY=     0.5381
   XZ=     3.1918   YZ=     0.5967   ZZ=    22.6832
   Eigenvalues:    20.5925    26.3101    29.8386
     86  H    Isotropic =    26.3435   Anisotropy =     7.5180
   XX=    26.6544   YX=     0.9551   ZX=     3.5653
   XY=     0.7558   YY=    30.0096   ZY=     1.7885
   XZ=     3.9969   YZ=     2.1569   ZZ=    22.3665
   Eigenvalues:    19.9961    27.6789    31.3555
     87  H    Isotropic =    32.1143   Anisotropy =     7.3319
   XX=    33.4580   YX=     0.8756   ZX=     4.0092
   XY=     0.7814   YY=    31.1886   ZY=     0.5533
   XZ=     4.5943   YZ=    -1.1837   ZZ=    31.6963
   Eigenvalues:    27.9999    31.3408    37.0022
     88  H    Isotropic =    33.1103   Anisotropy =     8.4701
   XX=    30.2376   YX=     3.3845   ZX=     0.1452
   XY=     2.5176   YY=    33.9474   ZY=     4.7000
   XZ=    -3.4299   YZ=     3.5026   ZZ=    35.1459
   Eigenvalues:    26.9914    33.5825    38.7571
     89  H    Isotropic =    32.1128   Anisotropy =    13.7219
   XX=    38.4541   YX=    -4.3570   ZX=    -3.5324
   XY=    -3.8862   YY=    30.5319   ZY=    -0.2070
   XZ=    -5.1548   YZ=    -0.9557   ZZ=    27.3524
   Eigenvalues:    25.0661    30.0115    41.2607
     90  H    Isotropic =    32.2496   Anisotropy =    15.9324
   XX=    36.5327   YX=     2.8138   ZX=    -7.4764
   XY=     2.5907   YY=    29.4590   ZY=    -2.3329
   XZ=    -8.0009   YZ=    -2.5030   ZZ=    30.7571
   Eigenvalues:    25.3259    28.5517    42.8712
     91  H    Isotropic =    32.9969   Anisotropy =    11.6768
   XX=    29.6088   YX=     0.6040   ZX=     3.1548
   XY=    -0.0002   YY=    29.3022   ZY=     0.0332
   XZ=     2.2797   YZ=    -1.5500   ZZ=    40.0797
   Eigenvalues:    28.6062    29.6030    40.7814
     92  H    Isotropic =    31.1052   Anisotropy =    13.1630
   XX=    31.7347   YX=    -4.4468   ZX=    -4.6750
   XY=    -4.0807   YY=    34.5305   ZY=     3.9327
   XZ=    -4.3865   YZ=     2.6644   ZZ=    27.0504
   Eigenvalues:    24.2441    29.1910    39.8805
     93  H    Isotropic =    32.3534   Anisotropy =    10.8969
   XX=    35.7603   YX=    -0.6214   ZX=     5.4175
   XY=    -1.1360   YY=    31.4293   ZY=    -2.9588
   XZ=     5.6905   YZ=    -1.9916   ZZ=    29.8707
   Eigenvalues:    25.9867    31.4556    39.6181
     94  H    Isotropic =    32.4501   Anisotropy =    17.1254
   XX=    28.2546   YX=    -2.2047   ZX=    -0.2343
   XY=    -1.6297   YY=    41.5518   ZY=    -5.6609
   XZ=    -0.5055   YZ=    -6.0800   ZZ=    27.5440
   Eigenvalues:    25.0769    28.4065    43.8670
     95  H    Isotropic =    31.2060   Anisotropy =    13.2674
   XX=    29.1202   YX=     3.3501   ZX=     3.5400
   XY=     3.7366   YY=    33.3105   ZY=     5.5742
   XZ=     3.2653   YZ=     5.4321   ZZ=    31.1874
   Eigenvalues:    26.4192    27.1479    40.0510
     96  H    Isotropic =    32.7871   Anisotropy =    12.1310
   XX=    27.3945   YX=    -1.2715   ZX=     1.1000
   XY=    -1.3177   YY=    31.7159   ZY=    -3.4567
   XZ=     0.7246   YZ=    -3.8803   ZZ=    39.2510
   Eigenvalues:    27.0353    30.4516    40.8744
     97  H    Isotropic =    32.1823   Anisotropy =    15.5701
   XX=    36.5579   YX=     5.9274   ZX=    -2.9267
   XY=     6.1444   YY=    34.3938   ZY=    -2.6564
   XZ=    -3.0912   YZ=    -2.6932   ZZ=    25.5953
   Eigenvalues:    24.6380    29.3466    42.5624
     98  H    Isotropic =    32.5991   Anisotropy =    11.0762
   XX=    35.6373   YX=     3.3922   ZX=    -4.4898
   XY=     5.1758   YY=    32.2579   ZY=    -2.2981
   XZ=    -3.2279   YZ=     0.2501   ZZ=    29.9021
   Eigenvalues:    27.6001    30.2140    39.9832
     99  H    Isotropic =    30.6886   Anisotropy =    13.0392
   XX=    30.9749   YX=    -2.2736   ZX=     3.7760
   XY=    -2.9045   YY=    24.2479   ZY=    -2.4991
   XZ=     4.1080   YZ=    -1.3625   ZZ=    36.8431
   Eigenvalues:    23.3392    29.3452    39.3814
    100  H    Isotropic =    32.2258   Anisotropy =    17.1714
   XX=    42.3444   YX=     1.5496   ZX=     4.0124
   XY=     3.6002   YY=    27.7810   ZY=     1.4965
   XZ=     3.3404   YZ=     1.6692   ZZ=    26.5520
   Eigenvalues:    25.2637    27.7403    43.6734
    101  H    Isotropic =    31.1910   Anisotropy =    13.6710
   XX=    34.9688   YX=    -1.6226   ZX=    -7.0407
   XY=    -0.7989   YY=    27.3410   ZY=     2.2536
   XZ=    -5.6169   YZ=     3.7033   ZZ=    31.2632
   Eigenvalues:    25.0086    28.2595    40.3050
    102  H    Isotropic =    30.1329   Anisotropy =    11.3906
   XX=    27.4606   YX=     0.0473   ZX=     4.2326
   XY=     1.7747   YY=    31.9958   ZY=     4.4691
   XZ=     3.5170   YZ=     5.8102   ZZ=    30.9423
   Eigenvalues:    24.1809    28.4911    37.7267
    103  H    Isotropic =    31.7868   Anisotropy =    15.2736
   XX=    40.1793   YX=     4.7437   ZX=     0.1181
   XY=     4.8380   YY=    28.8925   ZY=    -1.5487
   XZ=    -0.3775   YZ=    -1.7474   ZZ=    26.2887
   Eigenvalues:    25.1324    28.2588    41.9693
    104  H    Isotropic =    31.4046   Anisotropy =    13.2006
   XX=    38.7884   YX=    -3.4257   ZX=     1.1652
   XY=    -3.8804   YY=    29.0954   ZY=     0.6741
   XZ=     2.3321   YZ=    -0.5536   ZZ=    26.3300
   Eigenvalues:    25.9447    28.0641    40.2050
    105  H    Isotropic =    30.5708   Anisotropy =    12.7943
   XX=    31.8649   YX=    -1.8317   ZX=     5.7443
   XY=    -1.0217   YY=    26.1559   ZY=    -1.9448
   XZ=     5.7636   YZ=    -2.2808   ZZ=    33.6918
   Eigenvalues:    25.6014    27.0107    39.1004
    106  H    Isotropic =    30.6085   Anisotropy =    10.2682
   XX=    28.3107   YX=     3.4705   ZX=    -1.3162
   XY=     3.4872   YY=    31.6448   ZY=    -4.1392
   XZ=    -1.1880   YZ=    -4.7624   ZZ=    31.8702
   Eigenvalues:    25.6667    28.7050    37.4540
    107  H    Isotropic =    30.5192   Anisotropy =     8.4748
   XX=    28.6175   YX=    -2.9909   ZX=    -2.0832
   XY=    -3.5771   YY=    29.0444   ZY=     2.6144
   XZ=    -1.7032   YZ=     2.1410   ZZ=    33.8958
   Eigenvalues:    25.5314    29.8571    36.1691
    108  H    Isotropic =    31.2647   Anisotropy =    11.7041
   XX=    35.6373   YX=    -2.9176   ZX=     5.9162
   XY=    -2.3218   YY=    30.6936   ZY=     0.8637
   XZ=     5.6135   YZ=     0.9541   ZZ=    27.4631
   Eigenvalues:    23.8691    30.8575    39.0674
    109  H    Isotropic =    30.6238   Anisotropy =    14.4711
   XX=    27.3920   YX=    -2.1358   ZX=     1.7625
   XY=    -1.4017   YY=    38.7744   ZY=    -4.0317
   XZ=     1.6019   YZ=    -3.9888   ZZ=    25.7050
   Eigenvalues:    24.1351    27.4652    40.2712
    110  H    Isotropic =    31.8641   Anisotropy =    12.3343
   XX=    32.0723   YX=    -5.0691   ZX=    -3.7967
   XY=    -4.2861   YY=    31.7539   ZY=     2.9858
   XZ=    -5.2065   YZ=     3.1537   ZZ=    31.7660
   Eigenvalues:    26.8102    28.6951    40.0869
 End of Minotr F.D. properties file   721 does not exist.
 End of Minotr F.D. properties file   722 does not exist.
 End of Minotr F.D. properties file   788 does not exist.
 Hyperfine terms turned off by default for NAtoms > 100.

 **********************************************************************

            Population analysis using the SCF Density.

 **********************************************************************

 Orbital symmetries:
       Occupied  (A) (A) (A) (A) (A) (A) (A) (A) (A) (A) (A) (A)
                 (A) (A) (A) (A) (A) (A) (A) (A) (A) (A) (A) (A)
                 (A) (A) (A) (A) (A) (A) (A) (A) (A) (A) (A) (A)
                 (A) (A) (A) (A) (A) (A) (A) (A) (A) (A) (A) (A)
                 (A) (A) (A) (A) (A) (A) (A) (A) (A) (A) (A) (A)
                 (A) (A) (A) (A) (A) (A) (A) (A) (A) (A) (A) (A)
                 (A) (A) (A) (A) (A) (A) (A) (A) (A) (A) (A) (A)
                 (A) (A) (A) (A) (A) (A) (A) (A) (A) (A) (A) (A)
                 (A) (A) (A) (A) (A) (A) (A) (A) (A) (A) (A) (A)
                 (A) (A) (A) (A) (A) (A) (A) (A) (A) (A) (A) (A)
                 (A) (A) (A) (A) (A) (A) (A) (A) (A) (A) (A) (A)
                 (A) (A) (A) (A) (A) (A) (A) (A) (A) (A) (A) (A)
                 (A) (A) (A) (A) (A) (A) (A) (A) (A) (A) (A) (A)
                 (A) (A) (A) (A) (A) (A) (A) (A) (A) (A) (A) (A)
                 (A) (A) (A) (A) (A) (A) (A) (A) (A) (A) (A) (A)
                 (A) (A) (A) (A) (A) (A) (A) (A) (A) (A) (A) (A)
                 (A) (A) (A) (A) (A)
       Virtual   (A) (A) (A) (A) (A) (A) (A) (A) (A) (A) (A) (A)
                 (A) (A) (A) (A) (A) (A) (A) (A) (A) (A) (A) (A)
                 (A) (A) (A) (A) (A) (A) (A) (A) (A) (A) (A) (A)
                 (A) (A) (A) (A) (A) (A) (A) (A) (A) (A) (A) (A)
                 (A) (A) (A) (A) (A) (A) (A) (A) (A) (A) (A) (A)
                 (A) (A) (A) (A) (A) (A) (A) (A) (A) (A) (A) (A)
                 (A) (A) (A) (A) (A) (A) (A) (A) (A) (A) (A) (A)
                 (A) (A) (A) (A) (A) (A) (A) (A) (A) (A) (A) (A)
                 (A) (A) (A) (A) (A) (A) (A) (A) (A) (A) (A) (A)
                 (A) (A) (A) (A) (A) (A) (A) (A) (A) (A) (A) (A)
                 (A) (A) (A) (A) (A) (A) (A) (A) (A)
 The electronic state is 1-A.
 Alpha  occ. eigenvalues --  -20.30751 -20.28862 -20.24775 -20.22063 -19.91811
 Alpha  occ. eigenvalues --  -15.48046 -15.33767 -15.33341 -15.30529 -11.16635
 Alpha  occ. eigenvalues --  -11.14523 -11.10699 -11.09560 -11.09504 -11.09260
 Alpha  occ. eigenvalues --  -11.09021 -11.08984 -11.08568 -11.08144 -11.07947
 Alpha  occ. eigenvalues --  -11.07162 -11.06779 -11.06526 -11.06317 -11.06170
 Alpha  occ. eigenvalues --  -11.06135 -11.05857 -11.05819 -11.05689 -11.05481
 Alpha  occ. eigenvalues --  -11.05407 -11.05000 -11.04630 -11.04609 -11.04597
 Alpha  occ. eigenvalues --  -11.04474 -11.04199 -11.04063 -11.04057 -11.04031
 Alpha  occ. eigenvalues --  -11.03888 -11.03874 -11.03587 -11.03007 -11.02233
 Alpha  occ. eigenvalues --  -11.02225 -11.02019 -11.01975 -11.01965 -11.01816
 Alpha  occ. eigenvalues --  -11.01733 -11.01733 -11.01571 -11.01392  -1.37986
 Alpha  occ. eigenvalues --   -1.35937  -1.29496  -1.27795  -1.25234  -1.21601
 Alpha  occ. eigenvalues --   -1.20699  -1.18914  -1.10382  -1.09788  -1.08923
 Alpha  occ. eigenvalues --   -1.07593  -1.05698  -1.04955  -1.02610  -1.00889
 Alpha  occ. eigenvalues --   -0.99186  -0.98636  -0.98491  -0.97376  -0.96868
 Alpha  occ. eigenvalues --   -0.96378  -0.95068  -0.94581  -0.94083  -0.92298
 Alpha  occ. eigenvalues --   -0.91774  -0.91613  -0.90067  -0.89491  -0.87962
 Alpha  occ. eigenvalues --   -0.86420  -0.84835  -0.82822  -0.82027  -0.80781
 Alpha  occ. eigenvalues --   -0.80311  -0.79720  -0.78167  -0.77818  -0.77468
 Alpha  occ. eigenvalues --   -0.77190  -0.74447  -0.74080  -0.72719  -0.72127
 Alpha  occ. eigenvalues --   -0.71380  -0.70277  -0.69488  -0.68361  -0.66038
 Alpha  occ. eigenvalues --   -0.65215  -0.65046  -0.64641  -0.63680  -0.63119
 Alpha  occ. eigenvalues --   -0.62383  -0.62185  -0.61460  -0.61268  -0.61138
 Alpha  occ. eigenvalues --   -0.60751  -0.59860  -0.59262  -0.58762  -0.58426
 Alpha  occ. eigenvalues --   -0.58310  -0.58085  -0.57864  -0.57678  -0.57252
 Alpha  occ. eigenvalues --   -0.56939  -0.56729  -0.56141  -0.55555  -0.55316
 Alpha  occ. eigenvalues --   -0.54917  -0.54729  -0.54557  -0.54385  -0.54270
 Alpha  occ. eigenvalues --   -0.53982  -0.53669  -0.53224  -0.52883  -0.52198
 Alpha  occ. eigenvalues --   -0.51874  -0.51485  -0.51006  -0.50577  -0.50442
 Alpha  occ. eigenvalues --   -0.49941  -0.49506  -0.49367  -0.48854  -0.48451
 Alpha  occ. eigenvalues --   -0.48317  -0.48068  -0.47943  -0.47388  -0.47017
 Alpha  occ. eigenvalues --   -0.46778  -0.45977  -0.45907  -0.45738  -0.45109
 Alpha  occ. eigenvalues --   -0.44949  -0.44696  -0.44456  -0.44415  -0.43762
 Alpha  occ. eigenvalues --   -0.43577  -0.43092  -0.42798  -0.42630  -0.42423
 Alpha  occ. eigenvalues --   -0.42246  -0.42200  -0.41454  -0.41075  -0.40668
 Alpha  occ. eigenvalues --   -0.40374  -0.39711  -0.38617  -0.38543  -0.38026
 Alpha  occ. eigenvalues --   -0.37518  -0.37128  -0.36550  -0.35464  -0.34395
 Alpha  occ. eigenvalues --   -0.33458  -0.32937  -0.32239  -0.31123  -0.30651
 Alpha  occ. eigenvalues --   -0.27424  -0.26980  -0.26157  -0.21267  -0.20390
 Alpha  occ. eigenvalues --   -0.15741  -0.15241
 Alpha virt. eigenvalues --    0.26671   0.27376   0.27677   0.28269   0.30324
 Alpha virt. eigenvalues --    0.33070   0.45793   0.48082   0.48494   0.48924
 Alpha virt. eigenvalues --    0.49401   0.50070   0.50323   0.51929   0.52097
 Alpha virt. eigenvalues --    0.53920   0.53992   0.55244   0.55502   0.56057
 Alpha virt. eigenvalues --    0.56934   0.57467   0.57842   0.58477   0.59068
 Alpha virt. eigenvalues --    0.59719   0.59797   0.60192   0.60632   0.60946
 Alpha virt. eigenvalues --    0.61379   0.61584   0.61749   0.62870   0.63093
 Alpha virt. eigenvalues --    0.63153   0.63505   0.63990   0.64110   0.64677
 Alpha virt. eigenvalues --    0.64705   0.65147   0.65383   0.65418   0.65862
 Alpha virt. eigenvalues --    0.66357   0.66578   0.66833   0.66984   0.67316
 Alpha virt. eigenvalues --    0.67521   0.67884   0.67963   0.68355   0.68527
 Alpha virt. eigenvalues --    0.68724   0.69091   0.69363   0.69443   0.69798
 Alpha virt. eigenvalues --    0.70270   0.70343   0.70518   0.70634   0.71011
 Alpha virt. eigenvalues --    0.71148   0.71178   0.71465   0.71908   0.72322
 Alpha virt. eigenvalues --    0.72441   0.72796   0.73205   0.73589   0.73783
 Alpha virt. eigenvalues --    0.73934   0.74333   0.74473   0.74671   0.74748
 Alpha virt. eigenvalues --    0.75090   0.75451   0.75820   0.76095   0.76246
 Alpha virt. eigenvalues --    0.76630   0.76768   0.77024   0.77467   0.77614
 Alpha virt. eigenvalues --    0.77960   0.78072   0.78709   0.79127   0.79520
 Alpha virt. eigenvalues --    0.79617   0.79898   0.80007   0.80523   0.80775
 Alpha virt. eigenvalues --    0.81196   0.81336   0.81487   0.81826   0.82407
 Alpha virt. eigenvalues --    0.82938   0.84003   0.84435   0.84491   0.84550
 Alpha virt. eigenvalues --    0.85779   0.86138   0.86372   0.87215   0.87861
 Alpha virt. eigenvalues --    0.88347   0.89245   0.90809   0.91485   0.94046
 Alpha virt. eigenvalues --    0.94757   0.95642   0.97476   1.01326   1.02476
 Alpha virt. eigenvalues --    1.10240   1.11485   1.15636   1.16065
          Condensed to atoms (all electrons):
 Mulliken charges:
               1
     1  C   -0.074407
     2  C   -0.001542
     3  C   -0.064611
     4  C   -0.091763
     5  C    0.088218
     6  C   -0.013370
     7  N   -0.286881
     8  C    0.018333
     9  C    0.127692
    10  C    0.041049
    11  C   -0.114901
    12  C   -0.105575
    13  C    0.028022
    14  N   -0.291124
    15  C   -0.014758
    16  C   -0.108260
    17  C   -0.102030
    18  C   -0.105242
    19  C   -0.019330
    20  C   -0.110517
    21  C   -0.066593
    22  C    0.319378
    23  O   -0.276133
    24  O   -0.255735
    25  C   -0.055888
    26  C   -0.079246
    27  C   -0.110280
    28  C    0.000675
    29  C   -0.079765
    30  C   -0.062488
    31  C   -0.090343
    32  C    0.093843
    33  C   -0.013918
    34  N   -0.279332
    35  C    0.015560
    36  C    0.135288
    37  C    0.039784
    38  C   -0.116050
    39  C   -0.105439
    40  C    0.040674
    41  N   -0.080570
    42  C   -0.003101
    43  C   -0.097094
    44  C   -0.098996
    45  C   -0.095975
    46  C   -0.005009
    47  C   -0.098583
    48  C   -0.059179
    49  C    0.325048
    50  O   -0.273698
    51  O   -0.255482
    52  C   -0.055641
    53  C   -0.077400
    54  O   -0.461318
    55  H    0.068480
    56  H    0.055344
    57  H    0.057794
    58  H    0.056810
    59  H    0.054371
    60  H    0.050765
    61  H    0.048402
    62  H    0.050705
    63  H    0.054136
    64  H    0.062334
    65  H    0.054047
    66  H    0.050643
    67  H    0.050260
    68  H    0.051449
    69  H    0.060068
    70  H    0.062711
    71  H    0.057712
    72  H    0.052190
    73  H    0.068152
    74  H    0.051552
    75  H    0.065017
    76  H    0.073052
    77  H    0.073915
    78  H    0.077003
    79  H    0.055776
    80  H    0.071241
    81  H    0.076970
    82  H    0.060796
    83  H    0.059176
    84  H    0.057336
    85  H    0.055457
    86  H    0.059740
    87  H    0.054303
    88  H    0.054288
    89  H    0.049335
    90  H    0.053040
    91  H    0.046810
    92  H    0.084797
    93  H    0.055687
    94  H    0.057390
    95  H    0.082024
    96  H    0.046376
    97  H    0.058655
    98  H    0.068255
    99  H    0.092479
   100  H    0.058264
   101  H    0.090003
   102  H    0.101103
   103  H    0.045008
   104  H    0.061405
   105  H    0.069773
   106  H    0.074301
   107  H    0.076751
   108  H    0.072009
   109  H    0.073774
   110  H    0.054766
 Sum of Mulliken charges =  -0.00000
 Mulliken charges with hydrogens summed into heavy atoms:
               1
     1  C   -0.005927
     2  C   -0.001542
     3  C   -0.009267
     4  C   -0.033969
     5  C    0.088218
     6  C   -0.013370
     7  N   -0.286881
     8  C    0.018333
     9  C    0.127692
    10  C    0.097859
    11  C   -0.009765
    12  C   -0.006468
    13  C    0.028022
    14  N   -0.291124
    15  C    0.101712
    16  C   -0.003570
    17  C   -0.000321
    18  C    0.017537
    19  C    0.090572
    20  C    0.009187
    21  C   -0.001576
    22  C    0.319378
    23  O   -0.276133
    24  O   -0.255735
    25  C    0.168082
    26  C    0.124742
    27  C    0.009692
    28  C    0.000675
    29  C   -0.022428
    30  C   -0.007031
    31  C   -0.030602
    32  C    0.093843
    33  C   -0.013918
    34  N   -0.279332
    35  C    0.015560
    36  C    0.135288
    37  C    0.094087
    38  C   -0.012427
    39  C   -0.005589
    40  C    0.040674
    41  N   -0.080570
    42  C    0.137383
    43  C    0.042320
    44  C    0.006034
    45  C    0.064759
    46  C    0.143258
    47  C    0.047528
    48  C    0.002225
    49  C    0.325048
    50  O   -0.273698
    51  O   -0.255482
    52  C    0.165185
    53  C    0.123149
    54  O   -0.461318
 Electronic spatial extent (au):  <R**2>=          37517.0676
 Charge=             -0.0000 electrons
 Dipole moment (field-independent basis, Debye):
    X=             -3.6621    Y=             -0.8676    Z=             -4.1308  Tot=              5.5881
 Quadrupole moment (field-independent basis, Debye-Ang):
   XX=           -287.6994   YY=           -294.9176   ZZ=           -304.0569
   XY=            -13.6408   XZ=            -16.3180   YZ=            -15.0348
 Traceless Quadrupole moment (field-independent basis, Debye-Ang):
   XX=              7.8586   YY=              0.6404   ZZ=             -8.4990
   XY=            -13.6408   XZ=            -16.3180   YZ=            -15.0348
 Octapole moment (field-independent basis, Debye-Ang**2):
  XXX=            -91.0924  YYY=             75.0014  ZZZ=             49.4420  XYY=            -19.7752
  XXY=            -57.9192  XXZ=            -76.7113  XZZ=            -20.4381  YZZ=            -20.8513
  YYZ=            -16.5410  XYZ=            -40.4218
 Hexadecapole moment (field-independent basis, Debye-Ang**3):
 XXXX=         -31554.7839 YYYY=          -7529.7039 ZZZZ=          -6827.3671 XXXY=           -674.4689
 XXXZ=           -325.0929 YYYX=           -326.9292 YYYZ=            -19.7949 ZZZX=            216.4297
 ZZZY=           -144.7317 XXYY=          -6641.7948 XXZZ=          -6758.5694 YYZZ=          -2538.0278
 XXYZ=           -328.1039 YYXZ=            -47.2208 ZZXY=           -159.2248
 N-N= 8.113205368021D+03 E-N=-2.160298144049D+04  KE= 2.279086785396D+03
 ******************************Gaussian NBO Version 3.1******************************
             N A T U R A L   A T O M I C   O R B I T A L   A N D
          N A T U R A L   B O N D   O R B I T A L   A N A L Y S I S
 ******************************Gaussian NBO Version 3.1******************************
       /RESON  / : Allow strongly delocalized NBO set
       /NLMO   / : Form Natural Localized Molecular Orbitals
       /NMR /    : Analyze NMR Sheilding Tensor 

 Analyzing the SCF density

 Job title: Pleiokomenine_C_2                                               

 Storage needed:    355564 in NPA,    438187 in NBO,   2133784 in NLMO ( 104796000 available)
 GSVD:  LWork=     -108884 too small for GESVD, short by      536270 words or      536270 for optimal perf.


 NATURAL POPULATIONS:  Natural atomic orbital occupancies 
                                                          
   NAO  Atom  No  lang   Type(AO)    Occupancy      Energy
 ----------------------------------------------------------
     1    C    1  S      Cor( 1S)     1.99993     -10.94509
     2    C    1  S      Val( 2S)     1.08064      -0.17736
     3    C    1  px     Val( 2p)     0.98939       0.08702
     4    C    1  py     Val( 2p)     0.99915       0.09522
     5    C    1  pz     Val( 2p)     0.98630       0.14097
 
     6    C    2  S      Cor( 1S)     1.99991     -10.95523
     7    C    2  S      Val( 2S)     1.07902      -0.18363
     8    C    2  px     Val( 2p)     0.96889       0.10128
     9    C    2  py     Val( 2p)     0.97201       0.10837
    10    C    2  pz     Val( 2p)     0.96805       0.15809
 
    11    C    3  S      Cor( 1S)     1.99994     -10.94759
    12    C    3  S      Val( 2S)     1.08416      -0.18313
    13    C    3  px     Val( 2p)     0.98979       0.08745
    14    C    3  py     Val( 2p)     0.98205       0.10390
    15    C    3  pz     Val( 2p)     0.98047       0.13891
 
    16    C    4  S      Cor( 1S)     1.99993     -10.94105
    17    C    4  S      Val( 2S)     1.07170      -0.17386
    18    C    4  px     Val( 2p)     1.01976       0.07660
    19    C    4  py     Val( 2p)     1.01311       0.09255
    20    C    4  pz     Val( 2p)     0.98439       0.14129
 
    21    C    5  S      Cor( 1S)     1.99985     -10.98833
    22    C    5  S      Val( 2S)     1.05973      -0.18532
    23    C    5  px     Val( 2p)     0.93085       0.09496
    24    C    5  py     Val( 2p)     0.92310       0.10292
    25    C    5  pz     Val( 2p)     0.97516       0.14190
 
    26    C    6  S      Cor( 1S)     1.99990     -10.94711
    27    C    6  S      Val( 2S)     1.08415      -0.18875
    28    C    6  px     Val( 2p)     0.99911       0.09028
    29    C    6  py     Val( 2p)     0.98810       0.11222
    30    C    6  pz     Val( 2p)     0.95286       0.13958
 
    31    N    7  S      Cor( 1S)     1.99998     -15.27003
    32    N    7  S      Val( 2S)     1.40548      -0.59603
    33    N    7  px     Val( 2p)     1.21525      -0.04353
    34    N    7  py     Val( 2p)     1.47984      -0.14272
    35    N    7  pz     Val( 2p)     1.17471      -0.02736
 
    36    C    8  S      Cor( 1S)     1.99996     -11.00741
    37    C    8  S      Val( 2S)     1.10941      -0.23283
    38    C    8  px     Val( 2p)     0.94184       0.10343
    39    C    8  py     Val( 2p)     0.96879       0.07879
    40    C    8  pz     Val( 2p)     0.95993       0.11201
 
    41    C    9  S      Cor( 1S)     1.99996     -11.05111
    42    C    9  S      Val( 2S)     1.11195      -0.25722
    43    C    9  px     Val( 2p)     0.93693       0.09113
    44    C    9  py     Val( 2p)     0.90658       0.09010
    45    C    9  pz     Val( 2p)     0.87350       0.10881
 
    46    C   10  S      Cor( 1S)     1.99993     -11.01787
    47    C   10  S      Val( 2S)     1.09647      -0.21889
    48    C   10  px     Val( 2p)     0.92129       0.11052
    49    C   10  py     Val( 2p)     0.99381       0.08441
    50    C   10  pz     Val( 2p)     0.91416       0.09469
 
    51    C   11  S      Cor( 1S)     1.99994     -10.98170
    52    C   11  S      Val( 2S)     1.10375      -0.21604
    53    C   11  px     Val( 2p)     1.00013       0.08022
    54    C   11  py     Val( 2p)     0.99062       0.08183
    55    C   11  pz     Val( 2p)     0.99065       0.08610
 
    56    C   12  S      Cor( 1S)     1.99996     -10.97921
    57    C   12  S      Val( 2S)     1.09136      -0.20140
    58    C   12  px     Val( 2p)     1.00175       0.08844
    59    C   12  py     Val( 2p)     1.00256       0.08776
    60    C   12  pz     Val( 2p)     0.97813       0.08605
 
    61    C   13  S      Cor( 1S)     1.99998     -11.00515
    62    C   13  S      Val( 2S)     1.10488      -0.22876
    63    C   13  px     Val( 2p)     0.95582       0.10007
    64    C   13  py     Val( 2p)     0.94081       0.10792
    65    C   13  pz     Val( 2p)     0.94814       0.10827
 
    66    N   14  S      Cor( 1S)     1.99999     -15.23815
    67    N   14  S      Val( 2S)     1.42201      -0.57991
    68    N   14  px     Val( 2p)     1.51877      -0.14170
    69    N   14  py     Val( 2p)     1.20619      -0.01330
    70    N   14  pz     Val( 2p)     1.13255       0.01490
 
    71    C   15  S      Cor( 1S)     1.99994     -11.00771
    72    C   15  S      Val( 2S)     1.06940      -0.18922
    73    C   15  px     Val( 2p)     0.97326       0.09391
    74    C   15  py     Val( 2p)     0.98623       0.08179
    75    C   15  pz     Val( 2p)     0.93242       0.10785
 
    76    C   16  S      Cor( 1S)     1.99997     -10.97672
    77    C   16  S      Val( 2S)     1.08107      -0.19020
    78    C   16  px     Val( 2p)     0.98193       0.09201
    79    C   16  py     Val( 2p)     1.02137       0.08739
    80    C   16  pz     Val( 2p)     0.99032       0.09222
 
    81    C   17  S      Cor( 1S)     1.99996     -10.98022
    82    C   17  S      Val( 2S)     1.08587      -0.19569
    83    C   17  px     Val( 2p)     0.99878       0.08958
    84    C   17  py     Val( 2p)     1.00319       0.08774
    85    C   17  pz     Val( 2p)     0.98044       0.09084
 
    86    C   18  S      Cor( 1S)     1.99995     -10.97676
    87    C   18  S      Val( 2S)     1.09204      -0.19710
    88    C   18  px     Val( 2p)     1.00354       0.08624
    89    C   18  py     Val( 2p)     1.01022       0.09702
    90    C   18  pz     Val( 2p)     0.96923       0.08663
 
    91    C   19  S      Cor( 1S)     1.99994     -10.99999
    92    C   19  S      Val( 2S)     1.07154      -0.18442
    93    C   19  px     Val( 2p)     1.01515       0.08247
    94    C   19  py     Val( 2p)     0.88775       0.11820
    95    C   19  pz     Val( 2p)     0.99182       0.08984
 
    96    C   20  S      Cor( 1S)     1.99992     -10.98544
    97    C   20  S      Val( 2S)     1.09967      -0.21322
    98    C   20  px     Val( 2p)     1.02328       0.07371
    99    C   20  py     Val( 2p)     0.96680       0.08343
   100    C   20  pz     Val( 2p)     0.98410       0.09050
 
   101    C   21  S      Cor( 1S)     1.99994     -11.00974
   102    C   21  S      Val( 2S)     1.11075      -0.24033
   103    C   21  px     Val( 2p)     1.00887       0.06283
   104    C   21  py     Val( 2p)     0.96936       0.08000
   105    C   21  pz     Val( 2p)     0.99562       0.06656
 
   106    C   22  S      Cor( 1S)     1.99991     -11.11338
   107    C   22  S      Val( 2S)     1.05476      -0.26235
   108    C   22  px     Val( 2p)     0.86750       0.01224
   109    C   22  py     Val( 2p)     0.87710       0.09023
   110    C   22  pz     Val( 2p)     0.79820       0.16813
 
   111    O   23  S      Cor( 1S)     1.99999     -20.10012
   112    O   23  S      Val( 2S)     1.80805      -1.05977
   113    O   23  px     Val( 2p)     1.29969      -0.13814
   114    O   23  py     Val( 2p)     1.84218      -0.32126
   115    O   23  pz     Val( 2p)     1.36025      -0.12597
 
   116    O   24  S      Cor( 1S)     1.99999     -20.21695
   117    O   24  S      Val( 2S)     1.73036      -1.02980
   118    O   24  px     Val( 2p)     1.76429      -0.34025
   119    O   24  py     Val( 2p)     1.17733      -0.07976
   120    O   24  pz     Val( 2p)     1.59537      -0.26959
 
   121    C   25  S      Cor( 1S)     1.99984     -11.04732
   122    C   25  S      Val( 2S)     1.07707      -0.22910
   123    C   25  px     Val( 2p)     1.00654       0.04608
   124    C   25  py     Val( 2p)     0.85089       0.07294
   125    C   25  pz     Val( 2p)     1.03114       0.03875
 
   126    C   26  S      Cor( 1S)     1.99992     -11.01726
   127    C   26  S      Val( 2S)     1.06545      -0.19793
   128    C   26  px     Val( 2p)     0.97989       0.07056
   129    C   26  py     Val( 2p)     1.01088       0.06135
   130    C   26  pz     Val( 2p)     0.96037       0.07655
 
   131    C   27  S      Cor( 1S)     1.99995     -10.98304
   132    C   27  S      Val( 2S)     1.08407      -0.18898
   133    C   27  px     Val( 2p)     0.97699       0.10172
   134    C   27  py     Val( 2p)     1.01363       0.08499
   135    C   27  pz     Val( 2p)     1.01252       0.08638
 
   136    C   28  S      Cor( 1S)     1.99990     -10.95579
   137    C   28  S      Val( 2S)     1.08032      -0.18409
   138    C   28  px     Val( 2p)     0.95794       0.12343
   139    C   28  py     Val( 2p)     0.95880       0.17661
   140    C   28  pz     Val( 2p)     0.98723       0.07062
 
   141    C   29  S      Cor( 1S)     1.99992     -10.94541
   142    C   29  S      Val( 2S)     1.07748      -0.17702
   143    C   29  px     Val( 2p)     0.98785       0.10961
   144    C   29  py     Val( 2p)     0.98251       0.15214
   145    C   29  pz     Val( 2p)     1.01636       0.05328
 
   146    C   30  S      Cor( 1S)     1.99994     -10.94578
   147    C   30  S      Val( 2S)     1.08457      -0.18149
   148    C   30  px     Val( 2p)     0.97994       0.11775
   149    C   30  py     Val( 2p)     0.97431       0.15774
   150    C   30  pz     Val( 2p)     0.99562       0.06275
 
   151    C   31  S      Cor( 1S)     1.99993     -10.93909
   152    C   31  S      Val( 2S)     1.07149      -0.17088
   153    C   31  px     Val( 2p)     1.00918       0.10485
   154    C   31  py     Val( 2p)     0.97810       0.16004
   155    C   31  pz     Val( 2p)     1.02985       0.05313
 
   156    C   32  S      Cor( 1S)     1.99985     -10.98763
   157    C   32  S      Val( 2S)     1.06025      -0.18399
   158    C   32  px     Val( 2p)     0.91162       0.12329
   159    C   32  py     Val( 2p)     0.98259       0.15139
   160    C   32  pz     Val( 2p)     0.92817       0.07445
 
   161    C   33  S      Cor( 1S)     1.99990     -10.94875
   162    C   33  S      Val( 2S)     1.08583      -0.19288
   163    C   33  px     Val( 2p)     0.98897       0.11926
   164    C   33  py     Val( 2p)     0.95583       0.13828
   165    C   33  pz     Val( 2p)     0.99177       0.07978
 
   166    N   34  S      Cor( 1S)     1.99998     -15.26588
   167    N   34  S      Val( 2S)     1.39762      -0.58633
   168    N   34  px     Val( 2p)     1.12839       0.00210
   169    N   34  py     Val( 2p)     1.06507       0.02212
   170    N   34  pz     Val( 2p)     1.67828      -0.21901
 
   171    C   35  S      Cor( 1S)     1.99996     -11.01166
   172    C   35  S      Val( 2S)     1.10352      -0.23488
   173    C   35  px     Val( 2p)     0.95681       0.09258
   174    C   35  py     Val( 2p)     0.94531       0.11599
   175    C   35  pz     Val( 2p)     0.98329       0.06878
 
   176    C   36  S      Cor( 1S)     1.99996     -11.04905
   177    C   36  S      Val( 2S)     1.11543      -0.25558
   178    C   36  px     Val( 2p)     0.94063       0.09430
   179    C   36  py     Val( 2p)     0.82968       0.13318
   180    C   36  pz     Val( 2p)     0.93465       0.08202
 
   181    C   37  S      Cor( 1S)     1.99991     -11.03181
   182    C   37  S      Val( 2S)     1.10906      -0.24853
   183    C   37  px     Val( 2p)     0.97762       0.06449
   184    C   37  py     Val( 2p)     0.93194       0.07349
   185    C   37  pz     Val( 2p)     0.91274       0.08515
 
   186    C   38  S      Cor( 1S)     1.99993     -10.97795
   187    C   38  S      Val( 2S)     1.10923      -0.21709
   188    C   38  px     Val( 2p)     1.01346       0.08127
   189    C   38  py     Val( 2p)     0.98215       0.09144
   190    C   38  pz     Val( 2p)     0.97965       0.08627
 
   191    C   39  S      Cor( 1S)     1.99996     -10.97898
   192    C   39  S      Val( 2S)     1.09093      -0.20069
   193    C   39  px     Val( 2p)     1.01853       0.08344
   194    C   39  py     Val( 2p)     0.97880       0.08651
   195    C   39  pz     Val( 2p)     0.98650       0.09176
 
   196    C   40  S      Cor( 1S)     1.99998     -11.01165
   197    C   40  S      Val( 2S)     1.09937      -0.22619
   198    C   40  px     Val( 2p)     0.93342       0.11025
   199    C   40  py     Val( 2p)     0.94437       0.10656
   200    C   40  pz     Val( 2p)     0.96300       0.09664
 
   201    N   41  S      Cor( 1S)     1.99999     -15.41611
   202    N   41  S      Val( 2S)     1.39149      -0.65520
   203    N   41  px     Val( 2p)     1.21876      -0.12883
   204    N   41  py     Val( 2p)     1.13716      -0.09276
   205    N   41  pz     Val( 2p)     1.21845      -0.11282
 
   206    C   42  S      Cor( 1S)     1.99992     -11.03681
   207    C   42  S      Val( 2S)     1.09109      -0.23357
   208    C   42  px     Val( 2p)     0.99598       0.05649
   209    C   42  py     Val( 2p)     0.87668       0.07826
   210    C   42  pz     Val( 2p)     0.98624       0.06592
 
   211    C   43  S      Cor( 1S)     1.99995     -10.99018
   212    C   43  S      Val( 2S)     1.08736      -0.20420
   213    C   43  px     Val( 2p)     0.96030       0.09461
   214    C   43  py     Val( 2p)     0.99108       0.08351
   215    C   43  pz     Val( 2p)     1.02461       0.07849
 
   216    C   44  S      Cor( 1S)     1.99994     -10.98634
   217    C   44  S      Val( 2S)     1.09180      -0.20483
   218    C   44  px     Val( 2p)     1.00417       0.08511
   219    C   44  py     Val( 2p)     0.97083       0.09207
   220    C   44  pz     Val( 2p)     0.99556       0.08511
 
   221    C   45  S      Cor( 1S)     1.99993     -10.98574
   222    C   45  S      Val( 2S)     1.09854      -0.20794
   223    C   45  px     Val( 2p)     0.98566       0.08642
   224    C   45  py     Val( 2p)     0.97352       0.08901
   225    C   45  pz     Val( 2p)     1.00683       0.08410
 
   226    C   46  S      Cor( 1S)     1.99993     -11.03090
   227    C   46  S      Val( 2S)     1.09479      -0.23226
   228    C   46  px     Val( 2p)     0.90665       0.08718
   229    C   46  py     Val( 2p)     0.93863       0.05767
   230    C   46  pz     Val( 2p)     1.01447       0.06021
 
   231    C   47  S      Cor( 1S)     1.99991     -10.97242
   232    C   47  S      Val( 2S)     1.10352      -0.20034
   233    C   47  px     Val( 2p)     0.98732       0.10287
   234    C   47  py     Val( 2p)     0.96781       0.10669
   235    C   47  pz     Val( 2p)     1.00207       0.09669
 
   236    C   48  S      Cor( 1S)     1.99994     -11.00110
[...]
  102       0.4060        1.4230      -1.0170        -0.6734       1.0794
  103       1.7264       -0.3167       2.0431        -0.0943       1.8207
  104      26.3958        0.8070      25.5888         0.6513      25.7445
  105       0.2925       -1.5038       1.7962        -0.3627       0.6552
  106       0.1077       -1.6043       1.7119        -0.8048       0.9125
  108      -0.0488       -1.1782       1.1294        -0.7842       0.7354
 Sum       31.1810       -5.3473      36.5283        -1.0333      32.2143

 Contributions to Isotropic shielding for atom   94 (    32.4501 ppm):
                         Standard Origin              Atomic Origin
 NLMO      Total    Paramagnetic  Diamagnetic   Paramagnetic  Diamagnetic
  102       1.6635       -0.1413       1.8048         0.6948       0.9687
  103       0.2994        1.2661      -0.9667        -0.5803       0.8797
  104       0.1003        1.0363      -0.9359        -0.8472       0.9475
  105       0.6620        2.7413      -2.0793        -0.4444       1.1064
  106      26.3380       -0.1423      26.4803         0.5075      25.8305
  107       1.9091        3.5976      -1.6885         0.0627       1.8465
  108       0.0531       -0.3541       0.4072        -1.0758       1.1289
 Sum       31.0255        8.0037      23.0219        -1.6827      32.7082

 Contributions to Isotropic shielding for atom   95 (    31.2060 ppm):
                         Standard Origin              Atomic Origin
 NLMO      Total    Paramagnetic  Diamagnetic   Paramagnetic  Diamagnetic
   89      -0.5150        0.3536      -0.8686        -1.0799       0.5649
   99      -0.6189        0.5127      -1.1316        -1.4847       0.8658
  102       1.7069       -0.7643       2.4712         0.8055       0.9014
  103       0.0574        1.2589      -1.2014        -0.9268       0.9842
  105       0.6568        2.5502      -1.8935        -0.5181       1.1748
  106       1.7374        3.5184      -1.7810        -0.0969       1.8343
  107      25.7349       -0.1745      25.9094         0.5310      25.2039
  109       0.1023       -0.1759       0.2782        -0.9081       1.0104
  195       0.2034       -0.9172       1.1206         1.1363      -0.9328
 Sum       29.0652        6.1618      22.9033        -2.5417      31.6068

 Contributions to Isotropic shielding for atom   96 (    32.7871 ppm):
                         Standard Origin              Atomic Origin
 NLMO      Total    Paramagnetic  Diamagnetic   Paramagnetic  Diamagnetic
   90      -0.1451        1.0815      -1.2266        -0.8162       0.6712
   94      -0.1889        0.4873      -0.6762        -1.1391       0.9501
   97       1.8589       -0.9860       2.8449         0.9032       0.9558
  105       1.4084       -0.3637       1.7721         0.2667       1.1417
  106       0.0315        0.0191       0.0124        -0.9919       1.0234
  108      26.5389        0.2497      26.2892         0.4602      26.0788
  109       1.4967        3.7792      -2.2826        -0.3457       1.8424
 Sum       31.0004        4.2672      26.7332        -1.6630      32.6634

 Contributions to Isotropic shielding for atom   97 (    32.1824 ppm):
                         Standard Origin              Atomic Origin
 NLMO      Total    Paramagnetic  Diamagnetic   Paramagnetic  Diamagnetic
   89      -0.4046        0.3300      -0.7345        -1.1223       0.7178
   94      -0.1745        1.3405      -1.5150        -0.6979       0.5234
   97       0.8684        1.9654      -1.0970        -0.1040       0.9724
   98      -0.3449        1.6925      -2.0374        -1.3398       0.9949
  105       0.6886        2.7634      -2.0749        -0.3934       1.0820
  107       0.0704        0.8467      -0.7763        -1.0446       1.1150
  108       1.9501        2.8432      -0.8931         0.2248       1.7253
  109      26.4614       -0.4022      26.8636         0.7182      25.7432
 Sum       29.1148       11.3794      17.7354        -3.7590      32.8739

 Contributions to Isotropic shielding for atom   98 (    32.5991 ppm):
                         Standard Origin              Atomic Origin
 NLMO      Total    Paramagnetic  Diamagnetic   Paramagnetic  Diamagnetic
   71      -0.0873       -1.0203       0.9329        -1.1061       1.0188
   80       0.2795       -0.8583       1.1378        -0.8151       1.0945
   81       0.2969       -0.8980       1.1949        -0.5097       0.8066
   85       1.0090        0.5237       0.4853         0.3881       0.6209
  110       1.4235       -0.9723       2.3958         0.6099       0.8136
  111      25.9221        0.5421      25.3800         0.4727      25.4494
  112       1.8694        1.0103       0.8591        -0.0440       1.9134
  193      -0.4630        0.7211      -1.1841         0.3519      -0.8149
 Sum       30.2500       -0.9517      31.2017        -0.6525      30.9024

 Contributions to Isotropic shielding for atom   99 (    30.6886 ppm):
                         Standard Origin              Atomic Origin
 NLMO      Total    Paramagnetic  Diamagnetic   Paramagnetic  Diamagnetic
   85       0.2351        2.0363      -1.8012        -0.5749       0.8100
   87       0.0404       -1.1096       1.1500        -0.8093       0.8497
  100      -0.1969        0.1501      -0.3470        -1.0560       0.8591
  110       1.0717        0.7698       0.3019         0.3502       0.7215
  111       1.9543        0.3720       1.5823         0.0392       1.9152
  112      25.5397        0.0403      25.4994         0.5604      24.9792
  115       0.0681       -1.0332       1.1013        -0.5176       0.5858
  118       0.5525       -1.5265       2.0790        -0.2660       0.8185
  122       1.1354       -1.3228       2.4582         0.1144       1.0210
  123       0.3501       -1.3816       1.7317        -0.4438       0.7938
  125       0.1653       -1.2446       1.4099        -0.5470       0.7123
  126       0.0743       -1.6872       1.7615        -0.7453       0.8197
  193      -0.7225        1.5528      -2.2754         0.3931      -1.1156
  194      -0.8467       -1.3753       0.5286        -0.8209      -0.0258
  195      -0.1011        0.8663      -0.9675         0.9359      -1.0370
 Sum       29.3196       -4.8932      34.2128        -3.3876      32.7072

 Contributions to Isotropic shielding for atom  100 (    32.2258 ppm):
                         Standard Origin              Atomic Origin
 NLMO      Total    Paramagnetic  Diamagnetic   Paramagnetic  Diamagnetic
   71       0.1855       -0.7292       0.9146        -0.9601       1.1456
   84       0.1611       -0.8857       1.0468        -0.6568       0.8179
   89       0.9687       -0.6229       1.5916         0.0720       0.8967
   99       0.5903       -0.5427       1.1331        -0.1030       0.6933
  103       0.1456       -0.8949       1.0404        -0.5864       0.7319
  104      -0.0171       -1.2519       1.2348        -0.8199       0.8028
  110       1.0417       -0.6091       1.6508         0.2156       0.8261
  113      26.2330        0.6649      25.5681         0.5777      25.6553
  114       1.6672       -0.3755       2.0428        -0.1744       1.8416
 Sum       30.9760       -5.2471      36.2231        -2.4351      33.4111

 Contributions to Isotropic shielding for atom  101 (    31.1910 ppm):
                         Standard Origin              Atomic Origin
 NLMO      Total    Paramagnetic  Diamagnetic   Paramagnetic  Diamagnetic
  100      -0.0345        1.6136      -1.6481        -0.7965       0.7620
  101       0.1305       -1.0183       1.1488        -0.8832       1.0137
  103      -0.0545       -1.2740       1.2195        -0.8789       0.8244
  112       0.1536       -0.4398       0.5933        -0.8735       1.0271
  113       1.9917       -0.5772       2.5688         0.3014       1.6903
  114      25.7023        0.5835      25.1187         0.8418      24.8605
 Sum       27.8890       -1.1120      29.0010        -2.2889      30.1779

 Contributions to Isotropic shielding for atom  102 (    30.1329 ppm):
                         Standard Origin              Atomic Origin
 NLMO      Total    Paramagnetic  Diamagnetic   Paramagnetic  Diamagnetic
   89      -0.6759        0.4000      -1.0759        -1.5667       0.8908
   98       1.6963       -1.0046       2.7009         0.8050       0.8913
  115       1.1211        0.1381       0.9829         0.2343       0.8868
  116      25.2515        0.0620      25.1895         0.6078      24.6437
  117       1.0201        3.8028      -2.7826        -0.8973       1.9174
  118      -0.3135        0.1989      -0.5125        -1.4690       1.1555
  119       0.3177        1.2195      -0.9018        -0.1707       0.4883
  121       0.3829       -0.8875       1.2704        -1.1852       1.5680
 Sum       28.8001        3.9293      24.8709        -3.6417      32.4418

 Contributions to Isotropic shielding for atom  103 (    31.7868 ppm):
                         Standard Origin              Atomic Origin
 NLMO      Total    Paramagnetic  Diamagnetic   Paramagnetic  Diamagnetic
   94      -0.3767        1.5263      -1.9030        -1.3371       0.9604
   97      -0.2229        1.5678      -1.7907        -0.8416       0.6187
   98       1.0094        1.6447      -0.6353         0.0276       0.9818
  115       0.5482        3.2753      -2.7271        -0.5452       1.0934
  116       1.8431        3.7192      -1.8761        -0.1959       2.0390
  117      26.9391       -0.8020      27.7411         0.8519      26.0872
  118      -0.3420        0.6826      -1.0246        -0.6667       0.3247
  119      -0.1619        0.4182      -0.5801        -1.2839       1.1221
  120      -0.2657       -0.2920       0.0264        -1.0418       0.7762
  121       0.1428        0.0443       0.0985        -1.0630       1.2058
 Sum       29.1133       11.7843      17.3290        -6.0958      35.2091

 Contributions to Isotropic shielding for atom  104 (    31.4046 ppm):
                         Standard Origin              Atomic Origin
 NLMO      Total    Paramagnetic  Diamagnetic   Paramagnetic  Diamagnetic
   81      -0.6954        1.4281      -2.1235        -1.3966       0.7011
   82      -0.1103        0.3547      -0.4650        -1.0842       0.9739
   86      -0.4760        1.8595      -2.3355        -1.6123       1.1363
   87       1.3429        1.4115      -0.0685         0.3450       0.9979
   93      -0.0728       -1.4891       1.4163        -0.8435       0.7707
  115       0.8312        4.3275      -3.4963        -0.3995       1.2307
  117      -0.0964       -0.4022       0.3058        -1.2458       1.1494
  118       0.3604        5.0217      -4.6613        -0.8165       1.1770
  119      26.2858       -1.0466      27.3324         0.5577      25.7281
  120      -0.5168        0.1005      -0.6173        -1.3409       0.8241
  121      -0.2708        0.8867      -1.1575        -1.2583       0.9875
  122      -0.1589       -0.6805       0.5216        -1.2269       1.0680
  127      -0.2253       -2.1632       1.9379        -0.7028       0.4776
  191       0.2551       -0.9325       1.1875         0.4160      -0.1609
 Sum       26.4529        8.6762      17.7766       -10.6086      37.0615

 Contributions to Isotropic shielding for atom  105 (    30.5708 ppm):
                         Standard Origin              Atomic Origin
 NLMO      Total    Paramagnetic  Diamagnetic   Paramagnetic  Diamagnetic
  120      -0.4444       -0.1477      -0.2967        -1.3817       0.9373
  121       0.0457        0.3410      -0.2953        -1.4654       1.5111
  122      -1.3380        0.9107      -2.2487        -2.0974       0.7593
  123       0.3108        2.9493      -2.6386        -1.1766       1.4874
  124      26.4615        0.4362      26.0253         1.1575      25.3040
  125       1.4371        2.7052      -1.2682        -0.5940       2.0311
  126       1.4278        1.5816      -0.1538        -0.4429       1.8706
  193       1.2598       -1.4301       2.6899         1.3234      -0.0636
  194       0.0086        1.0107      -1.0022        -0.4459       0.4545
 Sum       29.1688        8.3571      20.8117        -5.1229      34.2917

 Contributions to Isotropic shielding for atom  106 (    30.6085 ppm):
                         Standard Origin              Atomic Origin
 NLMO      Total    Paramagnetic  Diamagnetic   Paramagnetic  Diamagnetic
  121       0.1964       -0.0425       0.2389        -0.8431       1.0394
  123       1.7767       -2.2574       4.0341        -0.3161       2.0929
  124       0.8733        2.3897      -1.5164        -1.1070       1.9803
  125      25.9119        0.5799      25.3319         0.6256      25.2863
  126       1.7434       -0.9748       2.7182        -0.2529       1.9963
 Sum       30.5017       -0.3050      30.8067        -1.8935      32.3952

 Contributions to Isotropic shielding for atom  107 (    30.5192 ppm):
                         Standard Origin              Atomic Origin
 NLMO      Total    Paramagnetic  Diamagnetic   Paramagnetic  Diamagnetic
  120      -0.1546       -0.6140       0.4594        -1.0560       0.9013
  121       0.4227       -0.7141       1.1368        -1.1474       1.5701
  122      -0.4171        0.7402      -1.1572        -1.2547       0.8376
  123       2.0392       -3.2458       5.2850         0.6250       1.4142
  124       1.0648        2.3124      -1.2477        -0.8033       1.8680
  125       1.8474       -0.6012       2.4486        -0.1866       2.0340
  126      25.9646        0.8939      25.0708         0.8315      25.1332
 Sum       30.7670       -1.2286      31.9956        -2.9914      33.7584

 Contributions to Isotropic shielding for atom  108 (    31.2647 ppm):
                         Standard Origin              Atomic Origin
 NLMO      Total    Paramagnetic  Diamagnetic   Paramagnetic  Diamagnetic
   76      -0.5753        0.0858      -0.6611        -1.4159       0.8406
   81      -0.6425        1.6890      -2.3316        -1.3787       0.7362
   82       1.2550       -0.8022       2.0572         0.0442       1.2108
   86      -0.2557        0.9102      -1.1660        -1.0230       0.7673
   87      -0.2398        1.0666      -1.3064        -1.1451       0.9053
  119      -0.1962       -1.3665       1.1703        -0.7121       0.5160
  127      26.0365        0.1307      25.9058         0.6053      25.4312
  128       1.7470        2.9125      -1.1655        -0.2410       1.9880
  129       1.1312        2.7242      -1.5930        -0.6810       1.8123
  190       1.3755        0.0855       1.2900         1.3626       0.0130
 Sum       29.6358        7.4360      22.1998        -4.5848      34.2205

 Contributions to Isotropic shielding for atom  109 (    30.6238 ppm):
                         Standard Origin              Atomic Origin
 NLMO      Total    Paramagnetic  Diamagnetic   Paramagnetic  Diamagnetic
   75      -0.5651        0.7181      -1.2832        -1.2741       0.7090
   76      -0.8931        0.2294      -1.1225        -2.2529       1.3598
   79      -0.3684        1.0485      -1.4169        -1.0022       0.6338
   82       1.8753       -1.8542       3.7295         0.6569       1.2184
  127       1.5984        2.9443      -1.3460        -0.3712       1.9695
  128      25.9076        0.2907      25.6169         0.5799      25.3277
  129       1.3779        2.1091      -0.7312        -0.4223       1.8002
 Sum       28.9326        5.4860      23.4466        -4.0858      33.0184

 Contributions to Isotropic shielding for atom  110 (    31.8641 ppm):
                         Standard Origin              Atomic Origin
 NLMO      Total    Paramagnetic  Diamagnetic   Paramagnetic  Diamagnetic
   75      -0.3618        0.8836      -1.2454        -0.9584       0.5966
   76      -1.1673        0.3799      -1.5472        -2.3391       1.1718
   79      -0.4725        1.2236      -1.6961        -1.0224       0.5499
   81      -0.4230        0.7704      -1.1933        -0.6800       0.2571
   82       1.6246       -1.8163       3.4409         0.8479       0.7767
   86      -0.1506        0.3776      -0.5282        -1.2224       1.0718
  127       1.7762        3.5061      -1.7299        -0.1254       1.9016
  128       1.8654        2.5447      -0.6794        -0.0335       1.8988
  129      26.7292        0.5516      26.1776         1.0038      25.7254
 Sum       29.4202        8.4212      20.9990        -4.5295      33.9497
 
 1\1\GINC-PCSN02\SP\RHF\STO-3G\C45H56N4O5\ABENIDD\30-May-2024\0\\# nmr=
 giao hf/sto-3g pop=nbo geom=connectivity\\Pleiokomenine_C_2\\0,1\C,0,0
 .,0.,0.\C,0,1.4022,0.,0.\C,0,2.0954,1.2288,0.\C,0,1.4099,2.4506,0.0076
 \C,0,0.0261,2.4436,0.0086\C,0,-0.6627,1.2181,0.0228\N,0,-0.8555,3.5571
 ,-0.0027\C,0,-2.1401,1.4948,0.1535\C,0,-2.1325,2.9495,-0.46\C,0,-3.166
 3,0.6349,-0.5976\C,0,-2.1187,2.8358,-2.0468\C,0,-3.3771,2.1276,-2.5649
 \C,0,-4.1659,1.5649,-1.3662\N,0,-3.7544,-0.2246,0.4312\C,0,-4.9887,-0.
 8943,0.0473\C,0,-6.0127,-0.0085,-0.6618\C,0,-5.3814,0.7492,-1.83\C,0,-
 2.4845,1.2927,1.65\C,0,-3.7944,0.5165,1.6817\C,0,-4.623,2.818,-0.5439\
 C,0,-3.4251,3.7237,-0.1477\C,0,-3.5675,4.2865,1.2552\O,0,-4.3217,3.850
 6,2.1158\O,0,-2.7932,5.3976,1.4091\C,0,-2.856,5.9778,2.7118\C,0,-0.351
 4,4.7866,-0.5961\C,0,2.165,-1.3091,0.0451\C,0,1.9175,-2.1599,1.2778\C,
 0,1.6684,-1.5812,2.5315\C,0,1.963,-3.5682,1.1654\C,0,1.7458,-4.4019,2.
 2713\C,0,1.4894,-3.8232,3.499\C,0,1.4299,-2.4166,3.6107\N,0,1.2873,-4.
 4608,4.7538\C,0,0.9733,-2.0868,5.0145\C,0,1.5835,-3.3571,5.7014\C,0,1.
 4702,-0.8723,5.7784\C,0,3.1911,-3.2024,5.7652\C,0,3.6151,-1.8803,6.411
 5\C,0,2.3705,-1.1822,6.9839\N,0,0.225,-0.1187,6.2143\C,0,0.6364,1.2631
 ,6.5977\C,0,1.5774,1.1657,7.8162\C,0,2.7452,0.1652,7.6493\C,0,-0.5498,
 -1.8146,4.8415\C,0,-0.6666,-0.292,5.0416\C,0,1.733,-2.2337,7.9571\C,0,
 1.2038,-3.5026,7.1933\C,0,-0.2221,-3.8467,7.5934\O,0,-0.6544,-3.7074,8
 .7337\O,0,-0.9029,-4.4823,6.6055\C,0,-2.2362,-4.8515,6.9534\C,0,1.8292
 ,-5.7931,4.9417\O,0,-0.4473,-0.6621,7.2784\H,0,-0.5604,-0.9313,0.0347\
 H,0,3.1835,1.2402,0.0067\H,0,1.9692,3.379,0.0168\H,0,-2.6679,-0.0231,-
 1.3225\H,0,-1.2336,2.2973,-2.408\H,0,-2.0587,3.8315,-2.5048\H,0,-3.993
 3,2.8312,-3.1389\H,0,-3.0903,1.3309,-3.2624\H,0,-4.722,-1.7154,-0.6308
 \H,0,-5.4514,-1.3749,0.9179\H,0,-6.8309,-0.6335,-1.0388\H,0,-6.4622,0.
 6911,0.0512\H,0,-5.0742,0.025,-2.5957\H,0,-6.1309,1.3989,-2.2974\H,0,-
 1.7296,0.6673,2.1479\H,0,-2.5179,2.2115,2.2342\H,0,-3.8237,-0.1583,2.5
 44\H,0,-4.6542,1.1833,1.7608\H,0,-5.2224,2.5293,0.3197\H,0,-5.3084,3.4
 181,-1.1597\H,0,-3.4803,4.6103,-0.7982\H,0,-3.8664,6.3441,2.9184\H,0,-
 2.5413,5.2548,3.4711\H,0,-2.1676,6.827,2.7376\H,0,0.0769,4.618,-1.5906
 \H,0,0.416,5.2334,0.045\H,0,-1.152,5.5255,-0.6976\H,0,1.894,-1.8738,-0
 .8567\H,0,3.2442,-1.1206,-0.0184\H,0,1.6139,-0.5036,2.6462\H,0,2.1632,
 -4.0288,0.1997\H,0,1.7809,-5.4782,2.1507\H,0,1.9889,-0.1944,5.0842\H,0
 ,3.6707,-3.2779,4.7816\H,0,3.615,-4.0372,6.3404\H,0,4.3617,-2.0674,7.1
 931\H,0,4.1063,-1.2469,5.6617\H,0,-0.2783,1.8152,6.8377\H,0,1.1245,1.7
 205,5.731\H,0,1.9806,2.1598,8.041\H,0,0.9959,0.8671,8.6974\H,0,3.5036,
 0.6635,7.03\H,0,3.2172,-0.0107,8.6234\H,0,-0.9737,-2.1003,3.8717\H,0,-
 1.1443,-2.3214,5.6017\H,0,-0.2544,0.2916,4.2127\H,0,-1.6744,0.0442,5.3
 016\H,0,0.975,-1.7887,8.6057\H,0,2.5095,-2.5667,8.6617\H,0,1.7609,-4.3
 652,7.5908\H,0,-2.2281,-5.6076,7.7446\H,0,-2.7096,-5.283,6.0672\H,0,-2
 .8141,-3.9737,7.2597\H,0,1.6603,-6.1328,5.9683\H,0,1.3254,-6.5102,4.28
 48\H,0,2.9054,-5.8317,4.7418\\Version=ES64L-G16RevB.01\State=1-A\HF=-2
 300.1985037\RMSD=3.893e-09\Dipole=0.8181756,1.0033281,-1.776933\Quadru
 pole=5.758204,11.6136326,-17.3718367,-3.3995566,12.8651499,0.3931387\P
 G=C01 [X(C45H56N4O5)]\\@


 IF YOU GIVE A BOY AND A PIG EVERYTHING THEY WANT,
 YOU'LL GET A BAD BOY AND A GOOD PIG.
 Job cpu time:       0 days  0 hours 11 minutes 48.1 seconds.
 Elapsed time:       0 days  0 hours  1 minutes 59.7 seconds.
 File lengths (MBytes):  RWF=     67 Int=      0 D2E=      0 Chk=     10 Scr=      1
 Normal termination of Gaussian 16 at Thu May 30 09:59:10 2024.
