 Entering Gaussian System, Link 0=g16
 Input=2_pleiokomenine_2a_c_8.gjf
 Output=2_pleiokomenine_2a_c_8.log
 Initial command:
 /opt/gaussian/g16/l1.exe "/data/abenidd/Elvis/pleiokomenine_C/NMR_HF/2a/2_pleiokomenine_2a_c_8/Gau-28986.inp" -scrdir="/data/abenidd/Elvis/pleiokomenine_C/NMR_HF/2a/2_pleiokomenine_2a_c_8/"
 Entering Link 1 = /opt/gaussian/g16/l1.exe PID=     28988.
  
 Copyright (c) 1988-2017, Gaussian, Inc.  All Rights Reserved.
  
 This is part of the Gaussian(R) 16 program.  It is based on
 the Gaussian(R) 09 system (copyright 2009, Gaussian, Inc.),
 the Gaussian(R) 03 system (copyright 2003, Gaussian, Inc.),
 the Gaussian(R) 98 system (copyright 1998, Gaussian, Inc.),
 the Gaussian(R) 94 system (copyright 1995, Gaussian, Inc.),
 the Gaussian 92(TM) system (copyright 1992, Gaussian, Inc.),
 the Gaussian 90(TM) system (copyright 1990, Gaussian, Inc.),
 the Gaussian 88(TM) system (copyright 1988, Gaussian, Inc.),
 the Gaussian 86(TM) system (copyright 1986, Carnegie Mellon
 University), and the Gaussian 82(TM) system (copyright 1983,
 Carnegie Mellon University). Gaussian is a federally registered
 trademark of Gaussian, Inc.
  
 This software contains proprietary and confidential information,
 including trade secrets, belonging to Gaussian, Inc.
  
 This software is provided under written license and may be
 used, copied, transmitted, or stored only in accord with that
 written license.
  
 The following legend is applicable only to US Government
 contracts under FAR:
  
                    RESTRICTED RIGHTS LEGEND
  
 Use, reproduction and disclosure by the US Government is
 subject to restrictions as set forth in subparagraphs (a)
 and (c) of the Commercial Computer Software - Restricted
 Rights clause in FAR 52.227-19.
  
 Gaussian, Inc.
 340 Quinnipiac St., Bldg. 40, Wallingford CT 06492
  
  
 ---------------------------------------------------------------
 Warning -- This program may not be used in any manner that
 competes with the business of Gaussian, Inc. or will provide
 assistance to any competitor of Gaussian, Inc.  The licensee
 of this program is prohibited from giving any competitor of
 Gaussian, Inc. access to this program.  By using this program,
 the user acknowledges that Gaussian, Inc. is engaged in the
 business of creating and licensing software in the field of
 computational chemistry and represents and warrants to the
 licensee that it is not a competitor of Gaussian, Inc. and that
 it will not use this program in any manner prohibited above.
 ---------------------------------------------------------------
  

 Cite this work as:
 Gaussian 16, Revision B.01,
 M. J. Frisch, G. W. Trucks, H. B. Schlegel, G. E. Scuseria, 
 M. A. Robb, J. R. Cheeseman, G. Scalmani, V. Barone, 
 G. A. Petersson, H. Nakatsuji, X. Li, M. Caricato, A. V. Marenich, 
 J. Bloino, B. G. Janesko, R. Gomperts, B. Mennucci, H. P. Hratchian, 
 J. V. Ortiz, A. F. Izmaylov, J. L. Sonnenberg, D. Williams-Young, 
 F. Ding, F. Lipparini, F. Egidi, J. Goings, B. Peng, A. Petrone, 
 T. Henderson, D. Ranasinghe, V. G. Zakrzewski, J. Gao, N. Rega, 
 G. Zheng, W. Liang, M. Hada, M. Ehara, K. Toyota, R. Fukuda, 
 J. Hasegawa, M. Ishida, T. Nakajima, Y. Honda, O. Kitao, H. Nakai, 
 T. Vreven, K. Throssell, J. A. Montgomery, Jr., J. E. Peralta, 
 F. Ogliaro, M. J. Bearpark, J. J. Heyd, E. N. Brothers, K. N. Kudin, 
 V. N. Staroverov, T. A. Keith, R. Kobayashi, J. Normand, 
 K. Raghavachari, A. P. Rendell, J. C. Burant, S. S. Iyengar, 
 J. Tomasi, M. Cossi, J. M. Millam, M. Klene, C. Adamo, R. Cammi, 
 J. W. Ochterski, R. L. Martin, K. Morokuma, O. Farkas, 
 J. B. Foresman, and D. J. Fox, Gaussian, Inc., Wallingford CT, 2016.
 
 ******************************************
 Gaussian 16:  ES64L-G16RevB.01 20-Dec-2017
                30-May-2024 
 ******************************************
 %nprocshared=8
 Will use up to    8 processors via shared memory.
 ----------------------------------------------
 # nmr=giao hf/sto-3g pop=nbo geom=connectivity
 ----------------------------------------------
 1/38=1,57=2,172=1/1;
 2/12=2,17=6,18=5,40=1/2;
 3/6=3,11=9,25=1,30=1/1,2,3,8;
 4//1;
 5/5=2,38=5/2;
 8/6=1,10=90,11=11/1;
 10/13=100,45=16/2;
 6/7=2,8=2,9=2,10=2,28=1,40=1,64=1/1,7;
 99/9=1/99;
 -----------------
 Pleiokomenine_C_2
 -----------------
 Symbolic Z-matrix:
 Charge =  0 Multiplicity = 1
 C                     0.        0.        0. 
 C                     1.4015    0.        0. 
 C                     2.0915    1.2301    0. 
 C                     1.4028    2.4515   -0.008 
 C                     0.019     2.442     0.0021 
 C                    -0.6644    1.2152    0.0354 
 N                    -0.8685    3.5507   -0.0051 
 C                    -2.1361    1.4864    0.216 
 C                    -2.1561    2.9328   -0.4149 
 C                    -3.1827    0.608    -0.4818 
 C                    -2.1956    2.7976   -1.9985 
 C                    -3.4656    2.0711   -2.4626 
 C                    -4.2118    1.523    -1.2293 
 N                    -3.725    -0.2438    0.5835 
 C                    -4.9729   -0.9181    0.2506 
 C                    -6.0242   -0.0463   -0.4357 
 C                    -5.438     0.6946   -1.6377 
 C                    -2.4234    1.3033    1.728 
 C                    -3.7311    0.5286    1.8168 
 C                    -4.6473    2.7882   -0.4133 
 C                    -3.4414    3.7042   -0.0682 
 C                    -3.5386    4.2808    1.3332 
 O                    -4.2571    3.8455    2.2245 
 O                    -2.7697    5.3998    1.4473 
 C                    -2.7795    5.9869    2.7484 
 C                    -0.3833    4.7719   -0.6294 
 C                     2.1601   -1.3071    0.1063 
 C                     2.3532   -1.7541    1.5414 
 C                     1.2457   -2.1471    2.306 
 C                     3.6355   -1.755     2.1312 
 C                     3.8217   -2.1085    3.4762 
 C                     2.7155   -2.4369    4.2378 
 C                     1.4389   -2.4694    3.6374 
 N                     2.6459   -2.713     5.6327 
 C                     0.4463   -2.9409    4.675 
 C                     1.2231   -2.3919    5.921 
 C                    -0.972    -2.4006    4.7484 
 C                     1.0985   -0.7791    5.96 
 C                    -0.3569   -0.3124    5.8768 
 C                    -1.2803   -1.5369    5.9799 
 N                    -1.8815   -3.6164    4.6998 
 C                    -3.2538   -3.1456    4.3507 
 C                    -3.7538   -2.2324    5.4884 
 C                    -2.7681   -1.1135    5.8988 
 C                     0.2517   -4.4456    4.3372 
 C                    -1.1689   -4.4967    3.7425 
 C                    -0.8713   -2.2379    7.3221 
 C                     0.5962   -2.8042    7.2729 
 C                     0.6579   -4.2505    7.737 
 O                    -0.0455   -4.7014    8.6361 
 O                     1.6864   -4.9358    7.1744 
 C                     1.8035   -6.2875    7.6155 
 C                     3.7186   -2.2256    6.4795 
 O                    -1.9703   -4.3323    5.8656 
 H                    -0.5632   -0.9275    0.032 
 H                     3.1792    1.2415    0.0265 
 H                     1.9605    3.3809    0.0005 
 H                    -2.7077   -0.0585   -1.2145 
 H                    -1.3186    2.262    -2.3828 
 H                    -2.1602    3.7876   -2.4712 
 H                    -4.1052    2.7602   -3.0284 
 H                    -3.1957    1.2644   -3.1554 
 H                    -4.7282   -1.749    -0.4238 
 H                    -5.4036   -1.3867    1.144 
 H                    -6.8529   -0.6797   -0.7735 
 H                    -6.451     0.6629    0.2817 
 H                    -5.1538   -0.0406   -2.4018 
 H                    -6.2066    1.3332   -2.0893 
 H                    -1.6505    0.684     2.2072 
 H                    -2.4354    2.2296    2.3011 
 H                    -3.7351   -0.1257    2.6947 
 H                    -4.5898    1.1953    1.9054 
 H                    -5.2206    2.5127    0.4719 
 H                    -5.3526    3.3763   -1.0182 
 H                    -3.523     4.5834   -0.7258 
 H                    -3.7819    6.3499    2.9955 
 H                    -2.4299    5.2694    3.4975 
 H                    -2.0944    6.8391    2.7404 
 H                     0.0176    4.5891   -1.6328 
 H                     0.4006    5.2297   -0.0166 
 H                    -1.1882    5.5077   -0.7194 
 H                     1.628    -2.0928   -0.4461 
 H                     3.13     -1.2073   -0.3976 
 H                     0.2549   -2.1859    1.8688 
 H                     4.5039   -1.4624    1.5445 
 H                     4.8165   -2.0886    3.9055 
 H                    -1.195    -1.8382    3.8293 
 H                     1.6672   -0.282     5.1647 
 H                     1.5451   -0.4023    6.8906 
 H                    -0.5648    0.4116    6.6742 
 H                    -0.5181    0.2182    4.9294 
 H                    -3.8809   -4.0369    4.2442 
 H                    -3.1952   -2.622     3.391 
 H                    -4.7105   -1.7839    5.1966 
 H                    -3.9626   -2.8441    6.3751 
 H                    -2.8651   -0.3157    5.1497 
 H                    -3.0901   -0.6746    6.8507 
 H                     0.9739   -4.8665    3.6282 
 H                     0.2882   -5.0729    5.228 
 H                    -1.2434   -4.0482    2.7469 
 H                    -1.621    -5.4924    3.7635 
 H                    -1.5998   -2.9904    7.6323 
 H                    -0.9146   -1.4908    8.1285 
 H                     1.1601   -2.2906    8.067 
 H                     2.6122   -6.7587    7.0501 
 H                     0.879    -6.8402    7.4201 
 H                     2.0595   -6.3207    8.679 
 H                     3.504    -2.444     7.5303 
 H                     4.6595   -2.7313    6.2372 
 H                     3.8664   -1.145     6.3786 
 
 Stoichiometry    C45H56N4O5
 Framework group  C1[X(C45H56N4O5)]
 Deg. of freedom   324
 Full point group                 C1      NOp   1
 Largest Abelian subgroup         C1      NOp   1
 Largest concise Abelian subgroup C1      NOp   1
                         Standard orientation:                         
 ---------------------------------------------------------------------
 Center     Atomic      Atomic             Coordinates (Angstroms)
 Number     Number       Type             X           Y           Z
 ---------------------------------------------------------------------
      1          6           0       -1.698052    1.858308   -1.519785
      2          6           0       -1.152899    3.147512   -1.449344
      3          6           0       -1.679879    4.069753   -0.521438
      4          6           0       -2.742769    3.724249    0.325368
      5          6           0       -3.268268    2.445925    0.255843
      6          6           0       -2.719002    1.520038   -0.646500
      7          7           0       -4.335091    1.890955    1.011371
      8          6           0       -3.348307    0.172770   -0.399702
      9          6           0       -4.705323    0.691162    0.216969
     10          6           0       -3.645346   -0.775518   -1.568634
     11          6           0       -5.672442    1.121983   -0.969077
     12          6           0       -6.001241   -0.069903   -1.878686
     13          6           0       -5.127795   -1.272859   -1.468506
     14          7           0       -2.606460   -1.808987   -1.483933
     15          6           0       -2.874320   -3.009664   -2.264563
     16          6           0       -4.297311   -3.556799   -2.154955
     17          6           0       -5.337117   -2.465816   -2.411714
     18          6           0       -2.349480   -0.610516    0.489691
     19          6           0       -2.298959   -2.022485   -0.077686
     20          6           0       -5.579800   -1.634733   -0.012146
     21          6           0       -5.476553   -0.420037    0.950247
     22          6           0       -4.967576   -0.816046    2.325004
     23          8           0       -4.380715   -1.859442    2.583973
     24          8           0       -5.317157    0.116868    3.254440
     25          6           0       -4.846790   -0.164700    4.572438
     26          6           0       -5.345651    2.819350    1.494433
     27          6           0        0.057100    3.506323   -2.287462
     28          6           0        1.362965    3.127480   -1.618283
     29          6           0        1.688021    1.776046   -1.435029
     30          6           0        2.249367    4.121067   -1.150056
     31          6           0        3.432968    3.786109   -0.475111
     32          6           0        3.714791    2.451915   -0.246941
     33          6           0        2.845246    1.459103   -0.746403
     34          7           0        4.781589    1.884028    0.505567
     35          6           0        3.444899    0.109031   -0.427178
     36          6           0        4.209714    0.559485    0.864908
     37          6           0        2.592021   -1.092453   -0.055800
     38          6           0        3.144011    0.809567    2.056506
     39          6           0        2.221529   -0.393927    2.265194
     40          6           0        2.721757   -1.562029    1.400320
     41          7           0        2.992483   -2.197957   -1.017679
     42          6           0        1.925188   -3.240305   -0.984167
     43          6           0        1.886797   -3.845109    0.433942
     44          6           0        1.816047   -2.806109    1.577378
     45          6           0        4.120467   -0.315299   -1.761214
     46          6           0        3.210677   -1.446715   -2.277511
     47          6           0        4.214876   -1.772383    1.832209
     48          6           0        5.119584   -0.539340    1.461019
     49          6           0        6.383300   -0.966816    0.732140
     50          8           0        6.991240   -2.002424    0.985889
     51          8           0        6.857293   -0.003718   -0.099568
     52          6           0        8.066298   -0.350876   -0.772741
     53          6           0        5.439374    2.718003    1.494060
     54          8           0        4.185847   -2.814150   -0.742589
     55          1           0       -1.296410    1.113359   -2.199645
     56          1           0       -1.246769    5.064619   -0.440319
     57          1           0       -3.121203    4.451827    1.034102
     58          1           0       -3.510431   -0.263602   -2.531150
     59          1           0       -5.237173    1.924556   -1.577435
     60          1           0       -6.608991    1.534830   -0.572552
     61          1           0       -7.066883   -0.318983   -1.798424
     62          1           0       -5.829269    0.208009   -2.925956
     63          1           0       -2.684429   -2.766384   -3.318055
     64          1           0       -2.152601   -3.796764   -2.013869
     65          1           0       -4.431772   -4.360761   -2.888176
     66          1           0       -4.451127   -4.009577   -1.169502
     67          1           0       -5.252603   -2.135581   -3.455237
     68          1           0       -6.345346   -2.881331   -2.296298
     69          1           0       -1.333947   -0.195227    0.407430
     70          1           0       -2.577015   -0.585537    1.554690
     71          1           0       -1.301362   -2.455599    0.048981
     72          1           0       -3.005920   -2.684449    0.424025
     73          1           0       -5.043788   -2.505289    0.365976
     74          1           0       -6.631350   -1.955542   -0.035337
     75          1           0       -6.508303   -0.082480    1.133647
     76          1           0       -5.309267   -1.079758    4.955082
     77          1           0       -3.755305   -0.246753    4.582667
     78          1           0       -5.136579    0.667222    5.220203
     79          1           0       -5.729953    3.461422    0.693806
     80          1           0       -4.934617    3.454445    2.286461
     81          1           0       -6.193563    2.279277    1.926557
     82          1           0       -0.004337    3.007186   -3.263519
     83          1           0        0.039176    4.580542   -2.511772
     84          1           0        1.040814    0.993262   -1.812794
     85          1           0        2.012965    5.173061   -1.296244
     86          1           0        4.088767    4.570642   -0.116287
     87          1           0        1.538511   -0.876655   -0.288860
     88          1           0        2.521918    1.699374    1.900711
     89          1           0        3.684761    1.015363    2.990682
     90          1           0        2.195787   -0.667081    3.327253
     91          1           0        1.194050   -0.119801    1.992743
     92          1           0        2.187683   -3.991951   -1.735922
     93          1           0        0.979661   -2.761753   -1.259088
     94          1           0        1.033182   -4.528416    0.511442
     95          1           0        2.782962   -4.459427    0.587285
     96          1           0        0.770897   -2.472926    1.638154
     97          1           0        2.031652   -3.299522    2.532621
     98          1           0        4.208286    0.473953   -2.516713
     99          1           0        5.124825   -0.708910   -1.604059
    100          1           0        2.238378   -1.096846   -2.638272
    101          1           0        3.692414   -2.101943   -3.008852
    102          1           0        4.621624   -2.716102    1.461880
    103          1           0        4.244130   -1.891561    2.925487
    104          1           0        5.527934   -0.150676    2.406827
    105          1           0        8.314520    0.460960   -1.461950
    106          1           0        7.935837   -1.268949   -1.354533
    107          1           0        8.885222   -0.458100   -0.054732
    108          1           0        6.186661    2.138597    2.045226
    109          1           0        5.973348    3.541622    1.007996
    110          1           0        4.731944    3.138322    2.216968
 ---------------------------------------------------------------------
 Rotational constants (GHZ):           0.0944697           0.0342582           0.0310010
 Standard basis: STO-3G (5D, 7F)
 There are   326 symmetry adapted cartesian basis functions of A   symmetry.
 There are   326 symmetry adapted basis functions of A   symmetry.
   326 basis functions,   978 primitive gaussians,   326 cartesian basis functions
   197 alpha electrons      197 beta electrons
       nuclear repulsion energy      8195.6883271415 Hartrees.
 NAtoms=  110 NActive=  110 NUniq=  110 SFac= 1.00D+00 NAtFMM=   60 NAOKFM=T Big=T
 Integral buffers will be    131072 words long.
 Raffenetti 1 integral format.
 Two-electron integral symmetry is turned on.
 One-electron integrals computed using PRISM.
 NBasis=   326 RedAO= T EigKep=  1.72D-01  NBF=   326
 NBsUse=   326 1.00D-06 EigRej= -1.00D+00 NBFU=   326
 ExpMin= 1.69D-01 ExpMax= 1.31D+02 ExpMxC= 1.31D+02 IAcc=3 IRadAn=         5 AccDes= 0.00D+00
 Harris functional with IExCor=  205 and IRadAn=       5 diagonalized for initial guess.
 HarFok:  IExCor=  205 AccDes= 0.00D+00 IRadAn=         5 IDoV= 1 UseB2=F ITyADJ=14
 ICtDFT=  3500011 ScaDFX=  1.000000  1.000000  1.000000  1.000000
 FoFCou: FMM=F IPFlag=           0 FMFlag=      100000 FMFlg1=        2001
         NFxFlg=           0 DoJE=T BraDBF=F KetDBF=T FulRan=T
         wScrn=  0.000000 ICntrl=       500 IOpCl=  0 I1Cent=   200000004 NGrid=           0
         NMat0=    1 NMatS0=      1 NMatT0=    0 NMatD0=    1 NMtDS0=    0 NMtDT0=    0
 Petite list used in FoFCou.
 Requested convergence on RMS density matrix=1.00D-08 within 128 cycles.
 Requested convergence on MAX density matrix=1.00D-06.
 Requested convergence on             energy=1.00D-06.
 No special actions if energy rises.
 Integral accuracy reduced to 1.0D-05 until final iterations.
 Initial convergence to 1.0D-05 achieved.  Increase integral accuracy.
 SCF Done:  E(RHF) =  -2300.19846917     A.U. after   16 cycles
            NFock= 16  Conv=0.39D-08     -V/T= 2.0093
 Range of M.O.s used for correlation:     1   326
 NBasis=   326 NAE=   197 NBE=   197 NFC=     0 NFV=     0
 NROrb=    326 NOA=   197 NOB=   197 NVA=   129 NVB=   129
          Differentiating once with respect to magnetic field using GIAOs.
          Electric field/nuclear overlap derivatives assumed to be zero.
 FoFCou: FMM=F IPFlag=           0 FMFlag=      100000 FMFlg1=        2001
         NFxFlg=           0 DoJE=F BraDBF=F KetDBF=T FulRan=T
         wScrn=  0.000000 ICntrl=      6100 IOpCl=  0 I1Cent=           7 NGrid=         110
         NMat0=    1 NMatS0=      1 NMatT0=    0 NMatD0=    1 NMtDS0=    0 NMtDT0=    0
 Symmetry not used in FoFCou.
 FoFJK:  IHMeth= 1 ICntrl=    6127 DoSepK=F KAlg= 0 I1Cent=           0 FoldK=F
 IRaf=         1 NMat=       1 IRICut=       1 DoRegI=T DoRafI=F ISym2E= 0 IDoP0=0 IntGTp=1.
          There are     3 degrees of freedom in the 1st order CPHF.  IDoFFX=0 NUNeed=     3.
      3 vectors produced by pass  0 Test12= 8.47D-13 3.33D-08 XBig12= 1.74D+02 2.16D+00.
 AX will form     3 AO Fock derivatives at one time.
      3 vectors produced by pass  1 Test12= 8.47D-13 3.33D-08 XBig12= 7.57D-01 2.45D-01.
      3 vectors produced by pass  2 Test12= 8.47D-13 3.33D-08 XBig12= 1.74D-02 3.49D-02.
      3 vectors produced by pass  3 Test12= 8.47D-13 3.33D-08 XBig12= 3.16D-04 3.46D-03.
      3 vectors produced by pass  4 Test12= 8.47D-13 3.33D-08 XBig12= 1.16D-05 6.99D-04.
      3 vectors produced by pass  5 Test12= 8.47D-13 3.33D-08 XBig12= 2.31D-07 7.36D-05.
      3 vectors produced by pass  6 Test12= 8.47D-13 3.33D-08 XBig12= 7.35D-09 1.60D-05.
      3 vectors produced by pass  7 Test12= 8.47D-13 3.33D-08 XBig12= 2.19D-10 2.84D-06.
      3 vectors produced by pass  8 Test12= 8.47D-13 3.33D-08 XBig12= 5.08D-12 4.79D-07.
      2 vectors produced by pass  9 Test12= 8.47D-13 3.33D-08 XBig12= 1.18D-13 5.78D-08.
 InvSVY:  IOpt=1 It=  1 EMax= 7.11D-15
 Solved reduced A of dimension    29 with     3 vectors.
 Calculating GIAO nuclear magnetic shielding tensors.
 SCF GIAO Magnetic shielding tensor (ppm):
      1  C    Isotropic =   124.8788   Anisotropy =   149.2532
   XX=   151.3611   YX=     2.4521   ZX=    76.3398
   XY=     2.8530   YY=    83.4362   ZY=   -63.8039
   XZ=    58.0399   YZ=   -54.2075   ZZ=   139.8391
   Eigenvalues:    31.5504   118.7049   224.3809
      2  C    Isotropic =   119.5385   Anisotropy =   159.3182
   XX=   111.3670   YX=   -40.5761   ZX=    87.2011
   XY=   -35.2326   YY=   105.1872   ZY=   -27.0195
   XZ=    76.6909   YZ=   -22.5571   ZZ=   142.0614
   Eigenvalues:    40.0584    92.8066   225.7506
      3  C    Isotropic =   119.3748   Anisotropy =   153.9360
   XX=   138.4186   YX=   -59.7747   ZX=    52.2889
   XY=   -53.0961   YY=    56.9872   ZY=   -30.0119
   XZ=    41.1741   YZ=   -36.6038   ZZ=   162.7186
   Eigenvalues:    27.4891   108.6365   221.9988
      4  C    Isotropic =   133.6644   Anisotropy =   143.3622
   XX=   162.8406   YX=    -3.9943   ZX=    63.9674
   XY=   -11.1136   YY=    98.2783   ZY=   -49.8526
   XZ=    64.0560   YZ=   -55.5470   ZZ=   139.8744
   Eigenvalues:    51.9371   119.8170   229.2392
      5  C    Isotropic =   109.3081   Anisotropy =   127.7886
   XX=   113.0657   YX=   -22.1101   ZX=    67.2795
   XY=   -25.6495   YY=    95.6353   ZY=   -18.4136
   XZ=    77.9209   YZ=    -1.2798   ZZ=   119.2235
   Eigenvalues:    41.3275    92.0963   194.5006
      6  C    Isotropic =   117.4587   Anisotropy =   141.8326
   XX=   151.4634   YX=   -34.8018   ZX=    52.8951
   XY=   -36.7811   YY=    63.3685   ZY=   -19.5448
   XZ=    55.7781   YZ=   -30.7194   ZZ=   137.5444
   Eigenvalues:    50.1221    90.2403   212.0138
      7  N    Isotropic =   274.5007   Anisotropy =    82.2469
   XX=   304.1902   YX=    25.4193   ZX=   -14.1965
   XY=    46.1105   YY=   265.0535   ZY=   -11.1594
   XZ=   -16.5738   YZ=    -4.3967   ZZ=   254.2584
   Eigenvalues:   243.6627   250.5075   329.3320
      8  C    Isotropic =   196.0272   Anisotropy =    11.8636
   XX=   192.1406   YX=    -7.0304   ZX=    -1.6471
   XY=    -4.9498   YY=   197.3738   ZY=     7.8558
   XZ=    -0.1637   YZ=    -0.1365   ZZ=   198.5672
   Eigenvalues:   188.0269   196.1184   203.9363
      9  C    Isotropic =   181.0987   Anisotropy =    44.8976
   XX=   173.1795   YX=    12.3451   ZX=   -15.1642
   XY=     4.2382   YY=   194.2295   ZY=    20.0386
   XZ=    -2.5889   YZ=    28.3662   ZZ=   175.8870
   Eigenvalues:   152.2578   180.0079   211.0304
     10  C    Isotropic =   190.4238   Anisotropy =    30.2867
   XX=   192.6402   YX=   -14.6122   ZX=     7.5702
   XY=   -11.2827   YY=   201.2877   ZY=     2.9377
   XZ=     4.8135   YZ=     5.6241   ZZ=   177.3434
   Eigenvalues:   172.2316   188.4248   210.6149
     11  C    Isotropic =   213.7890   Anisotropy =    19.7223
   XX=   213.6319   YX=    -3.1012   ZX=    10.1109
   XY=    -4.3881   YY=   210.7633   ZY=     2.3696
   XZ=    11.4938   YZ=    -4.7909   ZZ=   216.9719
   Eigenvalues:   203.7252   210.7046   226.9372
     12  C    Isotropic =   212.7589   Anisotropy =    21.4746
   XX=   209.8711   YX=    -9.0378   ZX=     3.8867
   XY=   -10.5194   YY=   220.8400   ZY=    -2.4472
   XZ=     3.4163   YZ=    -0.5259   ZZ=   207.5655
   Eigenvalues:   202.8164   208.3850   227.0753
     13  C    Isotropic =   213.5426   Anisotropy =     8.7144
   XX=   211.3139   YX=     3.6871   ZX=     1.5568
   XY=     1.4849   YY=   211.7055   ZY=     1.3853
   XZ=     4.8097   YZ=     0.1962   ZZ=   217.6082
   Eigenvalues:   208.5005   212.7750   219.3522
     14  N    Isotropic =   301.8311   Anisotropy =    54.6274
   XX=   275.5152   YX=   -44.5083   ZX=    17.7626
   XY=   -34.4762   YY=   312.4766   ZY=     6.3789
   XZ=    30.8736   YZ=    17.8130   ZZ=   317.5014
   Eigenvalues:   240.8632   326.3807   338.2493
     15  C    Isotropic =   205.2139   Anisotropy =    34.3744
   XX=   201.0979   YX=     4.2108   ZX=    -0.1203
   XY=     4.7347   YY=   212.7296   ZY=    21.9206
   XZ=     0.2119   YZ=    17.3480   ZZ=   201.8143
   Eigenvalues:   186.3978   201.1138   228.1302
     16  C    Isotropic =   224.1850   Anisotropy =     9.0361
   XX=   228.5544   YX=    -3.0847   ZX=    -0.6667
   XY=    -2.3407   YY=   224.7184   ZY=     0.4459
   XZ=     0.1538   YZ=     5.4532   ZZ=   219.2821
   Eigenvalues:   217.9149   224.4310   230.2090
     17  C    Isotropic =   215.3447   Anisotropy =    19.5532
   XX=   209.1821   YX=    -0.3988   ZX=     2.5386
   XY=    -3.1910   YY=   221.6617   ZY=    10.6143
   XZ=    -1.2490   YZ=     8.0815   ZZ=   215.1902
   Eigenvalues:   207.2358   210.4181   228.3801
     18  C    Isotropic =   210.3635   Anisotropy =    37.8990
   XX=   209.9794   YX=   -11.8748   ZX=    14.5231
   XY=   -12.1270   YY=   224.2421   ZY=    -1.8926
   XZ=    14.7452   YZ=   -10.9126   ZZ=   196.8689
   Eigenvalues:   187.3464   208.1145   235.6295
     19  C    Isotropic =   199.9666   Anisotropy =    40.5719
   XX=   184.6970   YX=    -5.4099   ZX=    13.1478
   XY=    -8.7312   YY=   194.2266   ZY=     6.3107
   XZ=    18.4191   YZ=     3.3383   ZZ=   220.9763
   Eigenvalues:   175.1532   197.7321   227.0146
     20  C    Isotropic =   212.1397   Anisotropy =    20.8003
   XX=   204.2350   YX=     6.9224   ZX=    -2.1954
   XY=     5.1962   YY=   206.9171   ZY=     3.6222
   XZ=    -3.4345   YZ=     3.0582   ZZ=   225.2670
   Eigenvalues:   198.6778   211.7347   226.0066
     21  C    Isotropic =   209.1128   Anisotropy =     9.4877
   XX=   207.5366   YX=     6.5876   ZX=     2.8666
   XY=     5.2548   YY=   206.4110   ZY=    -8.4805
   XZ=     1.9786   YZ=    -0.0439   ZZ=   213.3908
   Eigenvalues:   199.3827   212.5178   215.4379
     22  C    Isotropic =    96.3522   Anisotropy =    98.3471
   XX=   155.8349   YX=     2.5019   ZX=     0.3793
   XY=    -3.0604   YY=   146.4420   ZY=   -61.0580
   XZ=   -11.2531   YZ=   -42.0637   ZZ=   -13.2204
   Eigenvalues:   -28.5756   155.7152   161.9169
     23  O    Isotropic =  -134.2255   Anisotropy =   888.6786
   XX=   222.9037   YX=   408.1564   ZX=  -110.0055
   XY=   419.8839   YY=  -349.3971   ZY=   -31.2173
   XZ=  -125.3896   YZ=   -17.2793   ZZ=  -276.1832
   Eigenvalues:  -570.4501  -290.4533   458.2268
     24  O    Isotropic =   283.5805   Anisotropy =   140.0075
   XX=   319.3296   YX=    25.9487   ZX=  -107.1572
   XY=    60.3317   YY=   311.6493   ZY=   166.9111
   XZ=   -52.7558   YZ=    30.8705   ZZ=   219.7625
   Eigenvalues:   116.2101   357.6124   376.9188
     25  C    Isotropic =   197.3599   Anisotropy =    56.9573
   XX=   183.5078   YX=    -2.3746   ZX=    14.2624
   XY=    -1.6849   YY=   178.4005   ZY=    -7.7890
   XZ=    14.1366   YZ=    -8.0892   ZZ=   230.1713
   Eigenvalues:   177.2066   179.5416   235.3314
     26  C    Isotropic =   209.9707   Anisotropy =    42.1746
   XX=   213.0404   YX=   -19.0744   ZX=   -10.9178
   XY=   -19.1341   YY=   212.5066   ZY=     9.9832
   XZ=   -12.3996   YZ=     7.5303   ZZ=   204.3651
   Eigenvalues:   193.0289   198.7961   238.0871
     27  C    Isotropic =   206.5211   Anisotropy =    15.3065
   XX=   216.5806   YX=     0.6123   ZX=    -1.7910
   XY=     0.7967   YY=   201.5849   ZY=    -6.2702
   XZ=    -0.1721   YZ=    -4.3366   ZZ=   201.3978
   Eigenvalues:   196.1851   206.6528   216.7254
     28  C    Isotropic =   120.9268   Anisotropy =   155.8498
   XX=    91.0021   YX=    17.2318   ZX=   -74.3359
   XY=    12.1491   YY=    91.0676   ZY=     5.7905
   XZ=   -79.2143   YZ=     4.9805   ZZ=   180.7108
   Eigenvalues:    42.0801    95.8737   224.8267
     29  C    Isotropic =   127.9496   Anisotropy =   148.4548
   XX=   117.6754   YX=   -30.4163   ZX=   -64.0142
   XY=   -38.8609   YY=    73.3704   ZY=   -21.7804
   XZ=   -57.9370   YZ=   -23.7409   ZZ=   192.8029
   Eigenvalues:    36.8133   120.1160   226.9194
     30  C    Isotropic =   119.5595   Anisotropy =   148.7804
   XX=   130.8422   YX=    19.2187   ZX=   -49.9416
   XY=    19.6477   YY=    35.8385   ZY=    13.1797
   XZ=   -47.0220   YZ=    10.8624   ZZ=   191.9977
   Eigenvalues:    28.9050   111.0270   218.7464
     31  C    Isotropic =   133.5401   Anisotropy =   143.2345
   XX=   125.3899   YX=   -30.0616   ZX=   -60.0586
   XY=   -27.7786   YY=    83.8281   ZY=   -12.1856
   XZ=   -64.8356   YZ=   -23.2633   ZZ=   191.4023
   Eigenvalues:    51.8198   119.7707   229.0298
     32  C    Isotropic =   107.8682   Anisotropy =   130.2284
   XX=    89.2203   YX=    13.0030   ZX=   -70.3799
   XY=    -0.4126   YY=    87.5320   ZY=     3.0573
   XZ=   -71.6173   YZ=     1.3012   ZZ=   146.8522
   Eigenvalues:    40.5303    88.3872   194.6871
     33  C    Isotropic =   117.6176   Anisotropy =   141.0670
   XX=   120.6959   YX=    -4.0709   ZX=   -52.6327
   XY=     8.4856   YY=    50.4729   ZY=    10.9215
   XZ=   -50.7153   YZ=    11.6486   ZZ=   181.6841
   Eigenvalues:    48.6789    92.5117   211.6623
     34  N    Isotropic =   270.9421   Anisotropy =    82.9525
   XX=   267.0277   YX=   -15.1547   ZX=    24.2706
   XY=   -29.2426   YY=   267.2971   ZY=   -43.9545
   XZ=    16.6600   YZ=   -31.4515   ZZ=   278.5015
   Eigenvalues:   234.2196   252.3630   326.2438
     35  C    Isotropic =   201.2156   Anisotropy =    17.6466
   XX=   210.4603   YX=     1.5980   ZX=    -2.5297
   XY=     9.2826   YY=   198.7719   ZY=     4.2589
   XZ=     3.4184   YZ=     7.3141   ZZ=   194.4144
   Eigenvalues:   190.0114   200.6553   212.9800
     36  C    Isotropic =   178.8717   Anisotropy =    39.2777
   XX=   179.6097   YX=    21.6849   ZX=     4.9346
   XY=    11.1711   YY=   194.4206   ZY=    -1.4304
   XZ=    18.0423   YZ=   -11.2580   ZZ=   162.5850
   Eigenvalues:   152.3013   179.2570   205.0569
     37  C    Isotropic =   183.5310   Anisotropy =    40.9396
   XX=   169.4649   YX=     2.1320   ZX=   -17.4951
   XY=    -0.3175   YY=   192.6986   ZY=    19.8264
   XZ=   -10.6685   YZ=    16.4933   ZZ=   188.4296
   Eigenvalues:   158.7864   180.9826   210.8241
     38  C    Isotropic =   211.0824   Anisotropy =    22.9701
   XX=   212.1284   YX=    -5.7126   ZX=   -14.8869
   XY=     2.3842   YY=   205.9564   ZY=     0.7577
   XZ=   -10.3133   YZ=    -0.7715   ZZ=   215.1624
   Eigenvalues:   200.6570   206.1944   226.3958
     39  C    Isotropic =   212.9416   Anisotropy =    18.8656
   XX=   211.4036   YX=     0.0172   ZX=    -3.0329
   XY=    -4.3666   YY=   220.5066   ZY=     8.3277
   XZ=    -1.6867   YZ=     9.4022   ZZ=   206.9146
   Eigenvalues:   202.3859   210.9202   225.5186
     40  C    Isotropic =   211.6489   Anisotropy =    10.4731
   XX=   212.5579   YX=     2.1068   ZX=    -1.8818
   XY=     3.5453   YY=   214.5233   ZY=    -4.2309
   XZ=    -1.2432   YZ=    -5.0745   ZZ=   207.8656
   Eigenvalues:   205.4720   210.8438   218.6310
     41  N    Isotropic =   235.5230   Anisotropy =    24.7221
   XX=   235.8714   YX=   -27.1270   ZX=    12.1224
   XY=    -2.7206   YY=   234.6019   ZY=    10.6417
   XZ=    13.0226   YZ=     3.2416   ZZ=   236.0957
   Eigenvalues:   212.2525   242.3121   252.0044
     42  C    Isotropic =   193.7995   Anisotropy =    50.0566
   XX=   202.4574   YX=    23.0924   ZX=     1.4215
   XY=    28.7561   YY=   199.9682   ZY=    -0.1937
   XZ=    -1.0675   YZ=    -1.3830   ZZ=   178.9728
   Eigenvalues:   175.1336   179.0943   227.1705
     43  C    Isotropic =   219.3137   Anisotropy =     8.4884
   XX=   209.7124   YX=     4.4764   ZX=    -2.9904
   XY=     1.9986   YY=   223.6708   ZY=     0.6213
   XZ=    -0.9207   YZ=    -0.4270   ZZ=   224.5578
   Eigenvalues:   208.7620   224.2064   224.9726
     44  C    Isotropic =   214.9477   Anisotropy =    21.5454
   XX=   213.8883   YX=     7.7895   ZX=    -2.0103
   XY=    10.4793   YY=   223.8829   ZY=     2.3081
   XZ=    -4.1755   YZ=     0.0901   ZZ=   207.0719
   Eigenvalues:   204.4193   211.1125   229.3113
     45  C    Isotropic =   206.7557   Anisotropy =    33.0564
   XX=   192.0151   YX=     9.9451   ZX=   -15.5987
   XY=     5.9419   YY=   211.3874   ZY=    11.5890
   XZ=   -10.7163   YZ=    15.3837   ZZ=   216.8648
   Eigenvalues:   180.7594   210.7145   228.7933
     46  C    Isotropic =   190.6646   Anisotropy =    51.2122
   XX=   164.8423   YX=    14.4746   ZX=    -7.4637
   XY=     6.2302   YY=   194.7653   ZY=   -20.4229
   XZ=    -9.9125   YZ=   -12.0926   ZZ=   212.3863
   Eigenvalues:   161.3276   185.8602   224.8061
     47  C    Isotropic =   211.1499   Anisotropy =    26.0315
   XX=   227.5030   YX=     4.6842   ZX=     0.6763
   XY=     4.4940   YY=   207.4587   ZY=    -7.2225
   XZ=     2.1353   YZ=    -6.8148   ZZ=   198.4881
   Eigenvalues:   194.2811   210.6644   228.5042
     48  C    Isotropic =   207.6162   Anisotropy =    12.9349
   XX=   214.1021   YX=    -1.1300   ZX=    -2.0279
   XY=    -7.3846   YY=   205.3942   ZY=     1.2199
   XZ=    -3.0997   YZ=    -1.7971   ZZ=   203.3525
   Eigenvalues:   202.0389   204.5703   216.2395
     49  C    Isotropic =    98.4982   Anisotropy =   103.5944
   XX=    69.1401   YX=   -30.0596   ZX=    80.9666
   XY=   -51.9418   YY=   149.8140   ZY=    37.0975
   XZ=    93.5851   YZ=    29.5888   ZZ=    76.5406
   Eigenvalues:   -29.9550   157.8886   167.5611
     50  O    Isotropic =  -133.1991   Anisotropy =   875.7381
   XX=  -163.4302   YX=   273.8490   ZX=   238.4051
   XY=   262.1042   YY=  -346.1668   ZY=   308.0657
   XZ=   254.1810   YZ=   287.9291   ZZ=   109.9998
   Eigenvalues:  -560.5463  -289.6773   450.6263
     51  O    Isotropic =   286.2607   Anisotropy =   132.3664
   XX=   202.0558   YX=    49.5671   ZX=    86.1033
   XY=   148.1242   YY=   313.6843   ZY=   -74.6352
   XZ=    14.1652   YZ=     0.3917   ZZ=   343.0419
   Eigenvalues:   126.5749   357.7021   374.5049
     52  C    Isotropic =   197.5748   Anisotropy =    58.4073
   XX=   221.8733   YX=    -8.6122   ZX=   -23.4785
   XY=    -8.4698   YY=   179.7620   ZY=     5.4418
   XZ=   -23.6755   YZ=     6.3343   ZZ=   191.0890
   Eigenvalues:   176.9905   179.2209   236.5130
     53  C    Isotropic =   210.7328   Anisotropy =    41.8882
   XX=   210.1838   YX=    11.4927   ZX=    12.6334
   XY=    12.7207   YY=   209.3205   ZY=    16.4411
   XZ=    12.1563   YZ=    17.6312   ZZ=   212.6941
   Eigenvalues:   193.8322   199.7080   238.6583
     54  O    Isotropic =    79.3467   Anisotropy =   399.2346
   XX=   246.7949   YX=  -179.3124   ZX=    27.7850
   XY=  -159.5560   YY=    32.3324   ZY=   -17.9774
   XZ=    49.0041   YZ=   -32.4275   ZZ=   -41.0873
   Eigenvalues:   -61.7713   -45.6918   345.5031
     55  H    Isotropic =    25.4952   Anisotropy =    13.0030
   XX=    29.1438   YX=     5.5001   ZX=    -2.3162
   XY=     5.1138   YY=    26.5280   ZY=    -2.3917
   XZ=    -3.1048   YZ=    -1.6918   ZZ=    20.8140
   Eigenvalues:    19.9501    22.3717    34.1639
     56  H    Isotropic =    25.8703   Anisotropy =     6.8122
   XX=    27.0281   YX=    -0.9503   ZX=    -3.6515
   XY=    -0.0099   YY=    27.3752   ZY=     1.4052
   XZ=    -4.8244   YZ=     2.1373   ZZ=    23.2075
   Eigenvalues:    20.2518    26.9472    30.4117
     57  H    Isotropic =    26.6646   Anisotropy =     7.8807
   XX=    26.8477   YX=     3.1812   ZX=    -3.1336
   XY=     3.0806   YY=    29.9471   ZY=     1.8182
   XZ=    -4.0319   YZ=     1.6351   ZZ=    23.1990
   Eigenvalues:    19.9970    28.0784    31.9184
     58  H    Isotropic =    31.4195   Anisotropy =     8.2860
   XX=    29.4536   YX=     1.8480   ZX=    -1.1865
   XY=     1.3521   YY=    30.5069   ZY=    -4.4193
   XZ=    -2.4700   YZ=    -2.1218   ZZ=    34.2980
   Eigenvalues:    28.2048    29.1103    36.9435
     59  H    Isotropic =    32.8480   Anisotropy =     9.0219
   XX=    30.7564   YX=     3.0185   ZX=     1.2232
   XY=     0.2746   YY=    36.0513   ZY=    -4.9891
   XZ=     3.4482   YZ=    -3.9556   ZZ=    31.7364
   Eigenvalues:    26.8452    32.8363    38.8626
     60  H    Isotropic =    32.1516   Anisotropy =    14.0484
   XX=    37.5175   YX=    -5.9126   ZX=    -0.3416
   XY=    -6.5331   YY=    31.1521   ZY=     3.4669
   XZ=     1.1365   YZ=     3.8877   ZZ=    27.7852
   Eigenvalues:    24.1450    30.7926    41.5172
     61  H    Isotropic =    32.3145   Anisotropy =    15.5840
   XX=    41.7993   YX=     0.3747   ZX=     3.7959
   XY=     0.0357   YY=    28.2018   ZY=     1.3453
   XZ=     3.6748   YZ=     1.3638   ZZ=    26.9423
   Eigenvalues:    25.4633    28.7764    42.7038
     62  H    Isotropic =    32.5321   Anisotropy =    13.7037
   XX=    27.8149   YX=    -0.7847   ZX=     3.1661
   XY=    -1.6998   YY=    29.8586   ZY=    -3.4655
   XZ=     3.5112   YZ=    -2.5694   ZZ=    39.9228
   Eigenvalues:    26.8648    29.0637    41.6679
     63  H    Isotropic =    31.7680   Anisotropy =    13.6725
   XX=    29.5734   YX=     0.7094   ZX=    -3.9241
   XY=     0.2425   YY=    26.9459   ZY=     3.2228
   XZ=    -4.6034   YZ=     2.3630   ZZ=    38.7847
   Eigenvalues:    25.6148    28.8062    40.8830
     64  H    Isotropic =    31.8433   Anisotropy =    14.2457
   XX=    35.2053   YX=    -5.8507   ZX=     1.4124
   XY=    -6.6507   YY=    34.8500   ZY=     3.0134
   XZ=     1.4220   YZ=     2.6285   ZZ=    25.4747
   Eigenvalues:    23.6535    30.5360    41.3404
     65  H    Isotropic =    32.5953   Anisotropy =    17.8957
   XX=    28.5926   YX=     1.6231   ZX=     1.8228
   XY=     1.7159   YY=    38.3962   ZY=     8.5083
   XZ=     1.9793   YZ=     9.0263   ZZ=    30.7971
   Eigenvalues:    24.9073    28.3529    44.5258
     66  H    Isotropic =    32.5170   Anisotropy =    10.0881
   XX=    28.3727   YX=     1.7336   ZX=    -1.1865
   XY=     1.5439   YY=    35.8423   ZY=    -3.8996
   XZ=    -1.3044   YZ=    -4.2508   ZZ=    33.3359
   Eigenvalues:    27.9826    30.3258    39.2424
     67  H    Isotropic =    32.6057   Anisotropy =    13.4181
   XX=    27.8185   YX=    -0.7374   ZX=     3.2234
   XY=    -1.0043   YY=    29.2315   ZY=     0.5495
   XZ=     3.2801   YZ=     0.6929   ZZ=    40.7670
   Eigenvalues:    26.6639    29.6020    41.5510
     68  H    Isotropic =    32.4441   Anisotropy =    15.1736
   XX=    39.1013   YX=     5.3601   ZX=     2.4957
   XY=     5.2934   YY=    31.3226   ZY=     3.3443
   XZ=     1.8711   YZ=     3.0891   ZZ=    26.9083
   Eigenvalues:    25.1832    29.5892    42.5598
     69  H    Isotropic =    32.6961   Anisotropy =    16.7683
   XX=    43.2966   YX=     0.6302   ZX=     2.7845
   XY=     3.1575   YY=    31.2803   ZY=    -0.0012
   XZ=     2.5361   YZ=    -2.9996   ZZ=    23.5116
   Eigenvalues:    22.7992    31.4142    43.8750
     70  H    Isotropic =    33.0264   Anisotropy =     8.8959
   XX=    33.2304   YX=    -2.5427   ZX=    -0.9782
   XY=    -1.0131   YY=    27.0542   ZY=    -0.2947
   XZ=    -0.8788   YZ=    -1.0130   ZZ=    38.7947
   Eigenvalues:    26.5167    33.6055    38.9570
     71  H    Isotropic =    32.0212   Anisotropy =    19.7152
   XX=    41.4222   YX=    -6.4831   ZX=     3.7134
   XY=    -5.9644   YY=    29.3460   ZY=    -0.4467
   XZ=     5.6519   YZ=    -1.4853   ZZ=    25.2955
   Eigenvalues:    23.8947    27.0043    45.1647
     72  H    Isotropic =    31.8857   Anisotropy =     7.8045
   XX=    31.5204   YX=     0.7313   ZX=    -1.1154
   XY=     1.7789   YY=    32.9536   ZY=    -4.0829
   XZ=    -0.9053   YZ=    -4.8517   ZZ=    31.1831
   Eigenvalues:    27.5141    31.0543    37.0887
     73  H    Isotropic =    31.4081   Anisotropy =     8.9252
   XX=    28.1594   YX=    -2.1551   ZX=     0.1145
   XY=    -2.4164   YY=    35.4018   ZY=    -2.3865
   XZ=    -0.5887   YZ=    -3.8265   ZZ=    30.6632
   Eigenvalues:    27.0521    29.8141    37.3583
     74  H    Isotropic =    32.1921   Anisotropy =    15.1254
   XX=    38.6900   YX=     6.6454   ZX=    -1.8250
   XY=     6.3921   YY=    29.8003   ZY=     1.5192
   XZ=    -2.6367   YZ=     0.9383   ZZ=    28.0858
   Eigenvalues:    24.8867    29.4138    42.2757
     75  H    Isotropic =    31.1736   Anisotropy =    12.9145
   XX=    37.0895   YX=    -2.7730   ZX=    -4.4597
   XY=    -1.2011   YY=    26.8730   ZY=     2.5215
   XZ=    -4.5484   YZ=     1.9392   ZZ=    29.5585
   Eigenvalues:    25.5783    28.1594    39.7833
     76  H    Isotropic =    30.5922   Anisotropy =    11.6017
   XX=    27.2662   YX=     2.2273   ZX=    -2.8827
   XY=     2.9247   YY=    31.0743   ZY=    -4.7884
   XZ=    -3.0472   YZ=    -4.2702   ZZ=    33.4359
   Eigenvalues:    25.8498    27.6001    38.3266
     77  H    Isotropic =    30.7071   Anisotropy =     7.6119
   XX=    34.6687   YX=    -0.3605   ZX=     2.6045
   XY=    -0.7729   YY=    25.4473   ZY=    -0.3144
   XZ=     1.3870   YZ=    -0.4701   ZZ=    32.0054
   Eigenvalues:    25.4008    30.9389    35.7817
     78  H    Isotropic =    30.5716   Anisotropy =    12.0830
   XX=    26.1397   YX=    -1.4792   ZX=    -1.7223
   XY=    -1.5685   YY=    30.1713   ZY=     4.2953
   XZ=    -2.5130   YZ=     4.9213   ZZ=    35.4037
   Eigenvalues:    25.5681    27.5197    38.6269
     79  H    Isotropic =    31.9252   Anisotropy =    12.3430
   XX=    31.3780   YX=    -5.5882   ZX=     0.4429
   XY=    -6.1291   YY=    35.7340   ZY=    -1.2897
   XZ=     2.1866   YZ=    -1.7484   ZZ=    28.6635
   Eigenvalues:    27.2638    28.3579    40.1538
     80  H    Isotropic =    30.7724   Anisotropy =    14.1755
   XX=    26.7933   YX=     0.8478   ZX=    -1.5112
   XY=     0.5861   YY=    33.2222   ZY=     7.5793
   XZ=    -1.0189   YZ=     7.2959   ZZ=    32.3018
   Eigenvalues:    24.4542    27.6404    40.2227
     81  H    Isotropic =    30.9265   Anisotropy =    10.9417
   XX=    33.3893   YX=     0.1673   ZX=    -7.0108
   XY=    -0.6564   YY=    30.5264   ZY=     1.1713
   XZ=    -6.3037   YZ=     0.5358   ZZ=    28.8638
   Eigenvalues:    24.0481    30.5105    38.2210
     82  H    Isotropic =    30.0157   Anisotropy =     8.0928
   XX=    26.4151   YX=     0.9570   ZX=     0.4157
   XY=     1.5090   YY=    28.7523   ZY=     1.1122
   XZ=     1.3284   YZ=     2.0535   ZZ=    34.8798
   Eigenvalues:    25.8810    28.7552    35.4109
     83  H    Isotropic =    29.8748   Anisotropy =    12.6129
   XX=    27.4304   YX=     0.1044   ZX=     0.2427
   XY=     1.0653   YY=    37.0019   ZY=    -3.6383
   XZ=    -0.6673   YZ=    -4.4280   ZZ=    25.1920
   Eigenvalues:    23.9458    27.3951    38.2834
     84  H    Isotropic =    26.1590   Anisotropy =    13.4107
   XX=    31.2133   YX=    -4.4321   ZX=     1.9683
   XY=    -4.0734   YY=    27.7040   ZY=    -2.1459
   XZ=     4.3732   YZ=    -2.8323   ZZ=    19.5596
   Eigenvalues:    18.5061    24.8713    35.0994
     85  H    Isotropic =    25.6755   Anisotropy =     6.6234
   XX=    27.9487   YX=     2.1482   ZX=     2.7453
   XY=     1.3445   YY=    27.5158   ZY=    -0.3389
   XZ=     3.2291   YZ=    -0.0471   ZZ=    21.5620
   Eigenvalues:    20.2858    26.6496    30.0911
     86  H    Isotropic =    26.4775   Anisotropy =     7.7196
   XX=    26.6591   YX=    -0.2756   ZX=     3.6535
   XY=    -0.2552   YY=    30.9227   ZY=    -1.9527
   XZ=     3.2859   YZ=    -2.1702   ZZ=    21.8508
   Eigenvalues:    19.7698    28.0388    31.6239
     87  H    Isotropic =    31.8362   Anisotropy =    11.8763
   XX=    38.9957   YX=    -0.5490   ZX=     2.6017
   XY=    -1.6341   YY=    30.6235   ZY=    -0.3001
   XZ=     2.9514   YZ=    -2.2734   ZZ=    25.8894
   Eigenvalues:    25.1229    30.6319    39.7538
     88  H    Isotropic =    33.5582   Anisotropy =     8.3035
   XX=    32.6521   YX=    -3.5965   ZX=    -3.7248
   XY=    -4.1372   YY=    36.7549   ZY=     0.5003
   XZ=    -0.0007   YZ=    -2.0166   ZZ=    31.2676
   Eigenvalues:    28.7513    32.8295    39.0939
     89  H    Isotropic =    32.3040   Anisotropy =    12.9568
   XX=    28.9450   YX=     3.7436   ZX=     1.5263
   XY=     2.9776   YY=    29.4664   ZY=     4.0817
   XZ=     3.4518   YZ=     3.5300   ZZ=    38.5004
   Eigenvalues:    25.7762    30.1939    40.9418
     90  H    Isotropic =    32.4514   Anisotropy =    14.0765
   XX=    28.4447   YX=     1.2860   ZX=    -3.2262
   XY=     1.4338   YY=    27.9191   ZY=    -0.9760
   XZ=    -2.6595   YZ=    -1.7349   ZZ=    40.9904
   Eigenvalues:    26.7334    28.7851    41.8357
     91  H    Isotropic =    33.3699   Anisotropy =    15.2033
   XX=    42.8902   YX=    -2.5568   ZX=    -0.5315
   XY=    -3.3240   YY=    29.4504   ZY=     0.9829
   XZ=     0.5209   YZ=    -1.2053   ZZ=    27.7690
   Eigenvalues:    27.7578    28.8464    43.5054
     92  H    Isotropic =    30.8207   Anisotropy =    13.5052
   XX=    26.5542   YX=     1.9064   ZX=    -0.5890
   XY=     0.5761   YY=    34.4674   ZY=     6.7699
   XZ=    -0.6531   YZ=     6.5802   ZZ=    31.4404
   Eigenvalues:    25.0429    27.5950    39.8242
     93  H    Isotropic =    31.7578   Anisotropy =    14.6182
   XX=    40.1633   YX=    -0.3589   ZX=     4.3377
   XY=     0.7616   YY=    28.1920   ZY=     0.0016
   XZ=     4.4993   YZ=    -0.4344   ZZ=    26.9180
   Eigenvalues:    25.5526    28.2175    41.5033
     94  H    Isotropic =    32.3358   Anisotropy =    15.5062
   XX=    33.7542   YX=     7.6106   ZX=    -0.7834
   XY=     7.1189   YY=    36.4585   ZY=    -1.0927
   XZ=    -0.0581   YZ=    -1.1231   ZZ=    26.7947
   Eigenvalues:    26.5738    27.7603    42.6733
     95  H    Isotropic =    31.1185   Anisotropy =    14.3118
   XX=    30.8287   YX=    -5.8568   ZX=     1.3008
   XY=    -6.0191   YY=    36.5478   ZY=    -1.7878
   XZ=     1.8491   YZ=    -1.8154   ZZ=    25.9788
   Eigenvalues:    25.5119    27.1838    40.6596
     96  H    Isotropic =    32.8209   Anisotropy =    14.5452
   XX=    42.2396   YX=    -0.5101   ZX=    -2.4349
   XY=    -0.3967   YY=    29.3915   ZY=     0.9719
   XZ=    -1.5840   YZ=     0.0755   ZZ=    26.8316
   Eigenvalues:    26.4997    29.4453    42.5177
     97  H    Isotropic =    32.2081   Anisotropy =    14.3714
   XX=    27.2371   YX=     1.7056   ZX=     0.4835
   XY=     1.8247   YY=    32.2270   ZY=    -6.5451
   XZ=     0.9042   YZ=    -6.7320   ZZ=    37.1602
   Eigenvalues:    25.5630    29.2723    41.7890
     98  H    Isotropic =    32.3732   Anisotropy =    10.7772
   XX=    28.9521   YX=    -0.0058   ZX=    -3.8236
   XY=     2.2890   YY=    32.6740   ZY=    -4.7741
   XZ=    -4.5677   YZ=    -2.3870   ZZ=    35.4935
   Eigenvalues:    26.8375    30.7242    39.5580
     99  H    Isotropic =    30.5685   Anisotropy =    14.3997
   XX=    40.0349   YX=    -2.1465   ZX=    -0.1334
   XY=    -0.5194   YY=    24.5662   ZY=     2.4147
   XZ=    -0.4879   YZ=     2.0030   ZZ=    27.1045
   Eigenvalues:    23.2279    28.3093    40.1683
    100  H    Isotropic =    31.3789   Anisotropy =    10.3601
   XX=    32.7748   YX=    -1.5996   ZX=     4.4704
   XY=    -1.5411   YY=    28.4537   ZY=    -1.8240
   XZ=     5.6292   YZ=    -0.6046   ZZ=    32.9082
   Eigenvalues:    27.6331    28.2179    38.2856
    101  H    Isotropic =    30.7979   Anisotropy =    14.7482
   XX=    27.2525   YX=    -1.6948   ZX=    -3.3724
   XY=    -0.4655   YY=    28.9143   ZY=     4.9769
   XZ=    -4.6832   YZ=     6.5547   ZZ=    36.2268
   Eigenvalues:    24.9192    26.8444    40.6300
    102  H    Isotropic =    30.1021   Anisotropy =    11.9688
   XX=    31.3175   YX=    -4.9534   ZX=     1.1808
   XY=    -4.2108   YY=    34.8941   ZY=    -0.5422
   XZ=     2.6143   YZ=     0.9988   ZZ=    24.0947
   Eigenvalues:    23.4362    28.7888    38.0813
    103  H    Isotropic =    31.8324   Anisotropy =    14.5480
   XX=    29.3121   YX=    -0.1412   ZX=     3.3657
   XY=    -0.2001   YY=    27.9994   ZY=    -5.2554
   XZ=     4.0049   YZ=    -5.6370   ZZ=    38.1855
   Eigenvalues:    25.1320    28.8340    41.5311
    104  H    Isotropic =    31.4649   Anisotropy =    12.9150
   XX=    31.3809   YX=     2.0566   ZX=     6.9883
   XY=     1.0677   YY=    28.6626   ZY=     2.5007
   XZ=     5.8712   YZ=     1.7557   ZZ=    34.3511
   Eigenvalues:    26.2614    28.0583    40.0748
    105  H    Isotropic =    30.6096   Anisotropy =    11.1279
   XX=    32.0831   YX=     2.5954   ZX=    -4.4049
   XY=     2.1723   YY=    29.7014   ZY=    -3.9327
   XZ=    -4.4842   YZ=    -4.2260   ZZ=    30.0443
   Eigenvalues:    25.3322    28.4684    38.0282
    106  H    Isotropic =    30.4840   Anisotropy =     9.0614
   XX=    31.1163   YX=    -1.3480   ZX=    -2.2496
   XY=    -1.4231   YY=    30.6828   ZY=     5.3066
   XZ=    -2.7632   YZ=     4.6047   ZZ=    29.6528
   Eigenvalues:    25.0230    29.9040    36.5249
    107  H    Isotropic =    30.5711   Anisotropy =    12.7316
   XX=    38.2962   YX=    -0.5600   ZX=     2.6936
   XY=    -1.0739   YY=    25.8138   ZY=    -0.5126
   XZ=     2.9846   YZ=    -0.0250   ZZ=    27.6031
   Eigenvalues:    25.7548    26.8996    39.0588
    108  H    Isotropic =    31.3249   Anisotropy =    11.8231
   XX=    33.9865   YX=     0.2464   ZX=     6.9312
   XY=     0.1109   YY=    30.9453   ZY=     0.3919
   XZ=     7.5798   YZ=     0.7397   ZZ=    29.0428
   Eigenvalues:    23.8318    30.9358    39.2070
    109  H    Isotropic =    30.7214   Anisotropy =    15.1086
   XX=    31.4021   YX=     7.1315   ZX=     0.5607
   XY=     6.8705   YY=    35.5289   ZY=    -1.6794
   XZ=     1.0633   YZ=    -1.2196   ZZ=    25.2331
   Eigenvalues:    24.0937    27.2766    40.7938
    110  H    Isotropic =    31.9817   Anisotropy =    11.2871
   XX=    29.2951   YX=     0.4290   ZX=    -1.9004
   XY=     0.2088   YY=    33.0034   ZY=     5.9931
   XZ=    -0.0554   YZ=     6.3057   ZZ=    33.6465
   Eigenvalues:    26.8324    29.6062    39.5064
 End of Minotr F.D. properties file   721 does not exist.
 End of Minotr F.D. properties file   722 does not exist.
 End of Minotr F.D. properties file   788 does not exist.
 Hyperfine terms turned off by default for NAtoms > 100.

 **********************************************************************

            Population analysis using the SCF Density.

 **********************************************************************

 Orbital symmetries:
       Occupied  (A) (A) (A) (A) (A) (A) (A) (A) (A) (A) (A) (A)
                 (A) (A) (A) (A) (A) (A) (A) (A) (A) (A) (A) (A)
                 (A) (A) (A) (A) (A) (A) (A) (A) (A) (A) (A) (A)
                 (A) (A) (A) (A) (A) (A) (A) (A) (A) (A) (A) (A)
                 (A) (A) (A) (A) (A) (A) (A) (A) (A) (A) (A) (A)
                 (A) (A) (A) (A) (A) (A) (A) (A) (A) (A) (A) (A)
                 (A) (A) (A) (A) (A) (A) (A) (A) (A) (A) (A) (A)
                 (A) (A) (A) (A) (A) (A) (A) (A) (A) (A) (A) (A)
                 (A) (A) (A) (A) (A) (A) (A) (A) (A) (A) (A) (A)
                 (A) (A) (A) (A) (A) (A) (A) (A) (A) (A) (A) (A)
                 (A) (A) (A) (A) (A) (A) (A) (A) (A) (A) (A) (A)
                 (A) (A) (A) (A) (A) (A) (A) (A) (A) (A) (A) (A)
                 (A) (A) (A) (A) (A) (A) (A) (A) (A) (A) (A) (A)
                 (A) (A) (A) (A) (A) (A) (A) (A) (A) (A) (A) (A)
                 (A) (A) (A) (A) (A) (A) (A) (A) (A) (A) (A) (A)
                 (A) (A) (A) (A) (A) (A) (A) (A) (A) (A) (A) (A)
                 (A) (A) (A) (A) (A)
       Virtual   (A) (A) (A) (A) (A) (A) (A) (A) (A) (A) (A) (A)
                 (A) (A) (A) (A) (A) (A) (A) (A) (A) (A) (A) (A)
                 (A) (A) (A) (A) (A) (A) (A) (A) (A) (A) (A) (A)
                 (A) (A) (A) (A) (A) (A) (A) (A) (A) (A) (A) (A)
                 (A) (A) (A) (A) (A) (A) (A) (A) (A) (A) (A) (A)
                 (A) (A) (A) (A) (A) (A) (A) (A) (A) (A) (A) (A)
                 (A) (A) (A) (A) (A) (A) (A) (A) (A) (A) (A) (A)
                 (A) (A) (A) (A) (A) (A) (A) (A) (A) (A) (A) (A)
                 (A) (A) (A) (A) (A) (A) (A) (A) (A) (A) (A) (A)
                 (A) (A) (A) (A) (A) (A) (A) (A) (A) (A) (A) (A)
                 (A) (A) (A) (A) (A) (A) (A) (A) (A)
 The electronic state is 1-A.
 Alpha  occ. eigenvalues --  -20.30913 -20.28884 -20.24900 -20.22105 -19.91741
 Alpha  occ. eigenvalues --  -15.47980 -15.33841 -15.33377 -15.31184 -11.16819
 Alpha  occ. eigenvalues --  -11.14533 -11.10798 -11.09767 -11.09344 -11.09233
 Alpha  occ. eigenvalues --  -11.09056 -11.09027 -11.08471 -11.08197 -11.07915
 Alpha  occ. eigenvalues --  -11.07520 -11.07366 -11.06756 -11.06720 -11.06304
 Alpha  occ. eigenvalues --  -11.06111 -11.06038 -11.05850 -11.05754 -11.05741
 Alpha  occ. eigenvalues --  -11.05476 -11.04876 -11.04748 -11.04726 -11.04613
 Alpha  occ. eigenvalues --  -11.04562 -11.04463 -11.04362 -11.04312 -11.04270
 Alpha  occ. eigenvalues --  -11.04248 -11.03923 -11.03496 -11.02955 -11.02334
 Alpha  occ. eigenvalues --  -11.02296 -11.02076 -11.02060 -11.01988 -11.01897
 Alpha  occ. eigenvalues --  -11.01876 -11.01786 -11.01627 -11.01456  -1.38133
 Alpha  occ. eigenvalues --   -1.35965  -1.29434  -1.27956  -1.25260  -1.21807
 Alpha  occ. eigenvalues --   -1.20696  -1.19332  -1.10320  -1.10034  -1.09061
 Alpha  occ. eigenvalues --   -1.07687  -1.05732  -1.05254  -1.02559  -1.01086
 Alpha  occ. eigenvalues --   -0.99339  -0.98648  -0.98590  -0.97443  -0.97184
 Alpha  occ. eigenvalues --   -0.96287  -0.95035  -0.94957  -0.94202  -0.92473
 Alpha  occ. eigenvalues --   -0.91910  -0.91573  -0.90087  -0.89551  -0.88008
 Alpha  occ. eigenvalues --   -0.86514  -0.84928  -0.82990  -0.82273  -0.80743
 Alpha  occ. eigenvalues --   -0.80280  -0.80008  -0.78158  -0.78113  -0.77689
 Alpha  occ. eigenvalues --   -0.77324  -0.74535  -0.74244  -0.72751  -0.72395
 Alpha  occ. eigenvalues --   -0.71514  -0.70332  -0.69762  -0.68341  -0.66296
 Alpha  occ. eigenvalues --   -0.65314  -0.65122  -0.64700  -0.63887  -0.63058
 Alpha  occ. eigenvalues --   -0.62570  -0.62159  -0.61592  -0.61435  -0.61122
 Alpha  occ. eigenvalues --   -0.60972  -0.60142  -0.59248  -0.59039  -0.58612
 Alpha  occ. eigenvalues --   -0.58393  -0.58195  -0.57812  -0.57651  -0.57387
 Alpha  occ. eigenvalues --   -0.57105  -0.56706  -0.56326  -0.56027  -0.55587
 Alpha  occ. eigenvalues --   -0.55063  -0.54888  -0.54575  -0.54481  -0.54336
 Alpha  occ. eigenvalues --   -0.54195  -0.54033  -0.53528  -0.52786  -0.52090
 Alpha  occ. eigenvalues --   -0.51646  -0.51259  -0.51000  -0.50610  -0.50395
 Alpha  occ. eigenvalues --   -0.50182  -0.49894  -0.49361  -0.49138  -0.48642
 Alpha  occ. eigenvalues --   -0.48376  -0.48202  -0.47952  -0.47340  -0.47029
 Alpha  occ. eigenvalues --   -0.46602  -0.46333  -0.45909  -0.45802  -0.45236
 Alpha  occ. eigenvalues --   -0.45131  -0.44826  -0.44616  -0.44449  -0.44015
 Alpha  occ. eigenvalues --   -0.43841  -0.43256  -0.43036  -0.42890  -0.42700
 Alpha  occ. eigenvalues --   -0.42362  -0.42009  -0.41670  -0.41292  -0.40966
 Alpha  occ. eigenvalues --   -0.40533  -0.39712  -0.38829  -0.38579  -0.37943
 Alpha  occ. eigenvalues --   -0.37769  -0.37056  -0.36821  -0.35426  -0.34469
 Alpha  occ. eigenvalues --   -0.33615  -0.32902  -0.32382  -0.31153  -0.30656
 Alpha  occ. eigenvalues --   -0.27633  -0.27123  -0.26652  -0.21409  -0.20411
 Alpha  occ. eigenvalues --   -0.15681  -0.15184
 Alpha virt. eigenvalues --    0.26528   0.26794   0.27382   0.29143   0.30141
 Alpha virt. eigenvalues --    0.33039   0.45825   0.47883   0.47921   0.49164
 Alpha virt. eigenvalues --    0.49393   0.49979   0.50464   0.51899   0.52007
 Alpha virt. eigenvalues --    0.53690   0.53909   0.54937   0.55388   0.56047
 Alpha virt. eigenvalues --    0.56755   0.57267   0.57516   0.58285   0.59137
 Alpha virt. eigenvalues --    0.59346   0.59807   0.59950   0.60331   0.60621
 Alpha virt. eigenvalues --    0.61170   0.61563   0.62062   0.62734   0.63079
 Alpha virt. eigenvalues --    0.63164   0.63300   0.63568   0.64037   0.64506
 Alpha virt. eigenvalues --    0.64608   0.64905   0.64978   0.65547   0.65858
 Alpha virt. eigenvalues --    0.66234   0.66410   0.66566   0.66718   0.67117
 Alpha virt. eigenvalues --    0.67321   0.67633   0.67705   0.67998   0.68225
 Alpha virt. eigenvalues --    0.68545   0.68954   0.69313   0.69401   0.69863
 Alpha virt. eigenvalues --    0.70116   0.70174   0.70327   0.70917   0.70979
 Alpha virt. eigenvalues --    0.71115   0.71201   0.71490   0.71940   0.72322
 Alpha virt. eigenvalues --    0.72502   0.72974   0.73324   0.73570   0.73661
 Alpha virt. eigenvalues --    0.74010   0.74312   0.74505   0.74658   0.74737
 Alpha virt. eigenvalues --    0.74855   0.75448   0.75541   0.76114   0.76238
 Alpha virt. eigenvalues --    0.76442   0.76547   0.76927   0.77338   0.77598
 Alpha virt. eigenvalues --    0.77754   0.78136   0.78566   0.78793   0.79117
 Alpha virt. eigenvalues --    0.79589   0.79705   0.80078   0.80194   0.80417
 Alpha virt. eigenvalues --    0.80969   0.81263   0.81765   0.81870   0.82434
 Alpha virt. eigenvalues --    0.83019   0.83737   0.84013   0.84604   0.84834
 Alpha virt. eigenvalues --    0.85757   0.85905   0.86069   0.87174   0.87928
 Alpha virt. eigenvalues --    0.88310   0.89026   0.90531   0.91295   0.94055
 Alpha virt. eigenvalues --    0.94712   0.95358   0.97903   1.01145   1.02454
 Alpha virt. eigenvalues --    1.10461   1.11252   1.15815   1.16040
          Condensed to atoms (all electrons):
 Mulliken charges:
               1
     1  C   -0.075214
     2  C    0.000774
     3  C   -0.061805
     4  C   -0.089048
     5  C    0.089011
     6  C   -0.013589
     7  N   -0.286751
     8  C    0.017872
     9  C    0.128199
    10  C    0.039534
    11  C   -0.114904
    12  C   -0.105512
    13  C    0.028034
    14  N   -0.291728
    15  C   -0.015912
    16  C   -0.108227
    17  C   -0.102096
    18  C   -0.104748
    19  C   -0.021012
    20  C   -0.110626
    21  C   -0.066604
    22  C    0.319828
    23  O   -0.277354
    24  O   -0.255258
    25  C   -0.055857
    26  C   -0.079028
    27  C   -0.109541
    28  C    0.001623
    29  C   -0.079168
    30  C   -0.061653
    31  C   -0.090151
    32  C    0.093535
    33  C   -0.012761
    34  N   -0.278494
    35  C    0.015309
    36  C    0.134620
    37  C    0.039672
    38  C   -0.116320
    39  C   -0.105468
    40  C    0.040675
    41  N   -0.080636
    42  C   -0.004201
    43  C   -0.097291
    44  C   -0.099240
    45  C   -0.095664
    46  C   -0.004462
    47  C   -0.098846
    48  C   -0.059374
    49  C    0.324424
    50  O   -0.273388
    51  O   -0.255612
    52  C   -0.055681
    53  C   -0.077978
    54  O   -0.461624
    55  H    0.061491
    56  H    0.056922
    57  H    0.058823
    58  H    0.056645
    59  H    0.054850
    60  H    0.051298
    61  H    0.048997
    62  H    0.050784
    63  H    0.053890
    64  H    0.060133
    65  H    0.054887
    66  H    0.051097
    67  H    0.050535
    68  H    0.052228
    69  H    0.059497
    70  H    0.064867
    71  H    0.052576
    72  H    0.054112
    73  H    0.067488
    74  H    0.051974
    75  H    0.065469
    76  H    0.072734
    77  H    0.074563
    78  H    0.077656
    79  H    0.055692
    80  H    0.072161
    81  H    0.076522
    82  H    0.058192
    83  H    0.058024
    84  H    0.055361
    85  H    0.056009
    86  H    0.059698
    87  H    0.055798
    88  H    0.055375
    89  H    0.049160
    90  H    0.053022
    91  H    0.048052
    92  H    0.084109
    93  H    0.059092
    94  H    0.057387
    95  H    0.081619
    96  H    0.047575
    97  H    0.058867
    98  H    0.066232
    99  H    0.092244
   100  H    0.057590
   101  H    0.089397
   102  H    0.101249
   103  H    0.045126
   104  H    0.061529
   105  H    0.074109
   106  H    0.076530
   107  H    0.069922
   108  H    0.072011
   109  H    0.073495
   110  H    0.055041
 Sum of Mulliken charges =  -0.00000
 Mulliken charges with hydrogens summed into heavy atoms:
               1
     1  C   -0.013723
     2  C    0.000774
     3  C   -0.004883
     4  C   -0.030224
     5  C    0.089011
     6  C   -0.013589
     7  N   -0.286751
     8  C    0.017872
     9  C    0.128199
    10  C    0.096179
    11  C   -0.008756
    12  C   -0.005730
    13  C    0.028034
    14  N   -0.291728
    15  C    0.098110
    16  C   -0.002244
    17  C    0.000668
    18  C    0.019617
    19  C    0.085676
    20  C    0.008836
    21  C   -0.001135
    22  C    0.319828
    23  O   -0.277354
    24  O   -0.255258
    25  C    0.169095
    26  C    0.125347
    27  C    0.006674
    28  C    0.001623
    29  C   -0.023807
    30  C   -0.005643
    31  C   -0.030453
    32  C    0.093535
    33  C   -0.012761
    34  N   -0.278494
    35  C    0.015309
    36  C    0.134620
    37  C    0.095471
    38  C   -0.011785
    39  C   -0.004395
    40  C    0.040675
    41  N   -0.080636
    42  C    0.139000
    43  C    0.041716
    44  C    0.007203
    45  C    0.062813
    46  C    0.142526
    47  C    0.047529
    48  C    0.002155
    49  C    0.324424
    50  O   -0.273388
    51  O   -0.255612
    52  C    0.164880
    53  C    0.122570
    54  O   -0.461624
 Electronic spatial extent (au):  <R**2>=          36304.4191
 Charge=              0.0000 electrons
 Dipole moment (field-independent basis, Debye):
    X=             -5.8534    Y=              2.6118    Z=              0.1978  Tot=              6.4127
 Quadrupole moment (field-independent basis, Debye-Ang):
   XX=           -304.9244   YY=           -307.7328   ZZ=           -289.0016
   XY=             20.8724   XZ=              0.6482   YZ=              7.3947
 Traceless Quadrupole moment (field-independent basis, Debye-Ang):
   XX=             -4.3714   YY=             -7.1799   ZZ=             11.5513
   XY=             20.8724   XZ=              0.6482   YZ=              7.3947
 Octapole moment (field-independent basis, Debye-Ang**2):
  XXX=           -172.0663  YYY=             16.2263  ZZZ=             62.5915  XYY=            -53.5034
  XXY=            135.2803  XXZ=             12.9082  XZZ=             17.5024  YZZ=            -15.3570
  YYZ=              5.4663  XYZ=              4.7179
 Hexadecapole moment (field-independent basis, Debye-Ang**3):
 XXXX=         -30733.8595 YYYY=          -8890.9405 ZZZZ=          -4836.4315 XXXY=            764.9908
 XXXZ=           -424.1091 YYYX=            124.2177 YYYZ=             68.6080 ZZZX=           -314.1254
 ZZZY=             52.3478 XXYY=          -7126.0004 XXZZ=          -5822.5293 YYZZ=          -2367.2476
 XXYZ=            194.6680 YYXZ=            -15.0863 ZZXY=            -51.6151
 N-N= 8.195688327142D+03 E-N=-2.176752696671D+04  KE= 2.279103471443D+03
 ******************************Gaussian NBO Version 3.1******************************
             N A T U R A L   A T O M I C   O R B I T A L   A N D
          N A T U R A L   B O N D   O R B I T A L   A N A L Y S I S
 ******************************Gaussian NBO Version 3.1******************************
       /RESON  / : Allow strongly delocalized NBO set
       /NLMO   / : Form Natural Localized Molecular Orbitals
       /NMR /    : Analyze NMR Sheilding Tensor 

 Analyzing the SCF density

 Job title: Pleiokomenine_C_2                                               

 Storage needed:    355564 in NPA,    438187 in NBO,   2133784 in NLMO ( 104796000 available)
 GSVD:  LWork=     -108884 too small for GESVD, short by      536270 words or      536270 for optimal perf.


 NATURAL POPULATIONS:  Natural atomic orbital occupancies 
                                                          
   NAO  Atom  No  lang   Type(AO)    Occupancy      Energy
 ----------------------------------------------------------
     1    C    1  S      Cor( 1S)     1.99992     -10.94547
     2    C    1  S      Val( 2S)     1.07894      -0.17716
     3    C    1  px     Val( 2p)     0.99163       0.09106
     4    C    1  py     Val( 2p)     0.98308       0.14391
     5    C    1  pz     Val( 2p)     1.00353       0.08381
 
     6    C    2  S      Cor( 1S)     1.99990     -10.95611
     7    C    2  S      Val( 2S)     1.07832      -0.18346
     8    C    2  px     Val( 2p)     0.95805       0.11323
     9    C    2  py     Val( 2p)     0.96647       0.15963
    10    C    2  pz     Val( 2p)     0.98239       0.09418
 
    11    C    3  S      Cor( 1S)     1.99994     -10.94800
    12    C    3  S      Val( 2S)     1.08363      -0.18237
    13    C    3  px     Val( 2p)     0.98457       0.09899
    14    C    3  py     Val( 2p)     0.98251       0.14024
    15    C    3  pz     Val( 2p)     0.98291       0.09340
 
    16    C    4  S      Cor( 1S)     1.99993     -10.94180
    17    C    4  S      Val( 2S)     1.07197      -0.17390
    18    C    4  px     Val( 2p)     1.01517       0.08558
    19    C    4  py     Val( 2p)     0.98161       0.14552
    20    C    4  pz     Val( 2p)     1.01696       0.08114
 
    21    C    5  S      Cor( 1S)     1.99985     -10.98854
    22    C    5  S      Val( 2S)     1.05903      -0.18485
    23    C    5  px     Val( 2p)     0.92627       0.10182
    24    C    5  py     Val( 2p)     0.97140       0.14788
    25    C    5  pz     Val( 2p)     0.93164       0.08987
 
    26    C    6  S      Cor( 1S)     1.99990     -10.94720
    27    C    6  S      Val( 2S)     1.08289      -0.18832
    28    C    6  px     Val( 2p)     0.99871       0.09701
    29    C    6  py     Val( 2p)     0.95031       0.14374
    30    C    6  pz     Val( 2p)     0.99302       0.09854
 
    31    N    7  S      Cor( 1S)     1.99998     -15.27073
    32    N    7  S      Val( 2S)     1.40418      -0.59610
    33    N    7  px     Val( 2p)     1.18689      -0.03100
    34    N    7  py     Val( 2p)     1.15217      -0.01968
    35    N    7  pz     Val( 2p)     1.53190      -0.16527
 
    36    C    8  S      Cor( 1S)     1.99996     -11.00983
    37    C    8  S      Val( 2S)     1.10902      -0.23516
    38    C    8  px     Val( 2p)     0.94226       0.09914
    39    C    8  py     Val( 2p)     0.96151       0.10883
    40    C    8  pz     Val( 2p)     0.96779       0.07788
 
    41    C    9  S      Cor( 1S)     1.99996     -11.05306
    42    C    9  S      Val( 2S)     1.11123      -0.25850
    43    C    9  px     Val( 2p)     0.94540       0.08464
    44    C    9  py     Val( 2p)     0.86727       0.11058
    45    C    9  pz     Val( 2p)     0.90466       0.08933
 
    46    C   10  S      Cor( 1S)     1.99993     -11.02162
    47    C   10  S      Val( 2S)     1.09730      -0.22388
    48    C   10  px     Val( 2p)     0.91212       0.11037
    49    C   10  py     Val( 2p)     0.92243       0.08651
    50    C   10  pz     Val( 2p)     0.99504       0.08001
 
    51    C   11  S      Cor( 1S)     1.99994     -10.98373
    52    C   11  S      Val( 2S)     1.10369      -0.21798
    53    C   11  px     Val( 2p)     1.00432       0.07804
    54    C   11  py     Val( 2p)     0.99108       0.08418
    55    C   11  pz     Val( 2p)     0.98614       0.08002
 
    56    C   12  S      Cor( 1S)     1.99996     -10.98193
    57    C   12  S      Val( 2S)     1.09168      -0.20431
    58    C   12  px     Val( 2p)     1.00401       0.08477
    59    C   12  py     Val( 2p)     0.97807       0.08390
    60    C   12  pz     Val( 2p)     0.99977       0.08596
 
    61    C   13  S      Cor( 1S)     1.99998     -11.00867
    62    C   13  S      Val( 2S)     1.10499      -0.23232
    63    C   13  px     Val( 2p)     0.95284       0.09804
    64    C   13  py     Val( 2p)     0.94861       0.10513
    65    C   13  pz     Val( 2p)     0.94312       0.10290
 
    66    N   14  S      Cor( 1S)     1.99999     -15.24499
    67    N   14  S      Val( 2S)     1.42840      -0.58956
    68    N   14  px     Val( 2p)     1.52561      -0.15167
    69    N   14  py     Val( 2p)     1.16601      -0.00524
    70    N   14  pz     Val( 2p)     1.15957      -0.00162
 
    71    C   15  S      Cor( 1S)     1.99994     -11.01365
    72    C   15  S      Val( 2S)     1.06990      -0.19595
    73    C   15  px     Val( 2p)     0.98188       0.08376
    74    C   15  py     Val( 2p)     0.92334       0.10514
    75    C   15  pz     Val( 2p)     0.98718       0.07547
 
    76    C   16  S      Cor( 1S)     1.99997     -10.98147
    77    C   16  S      Val( 2S)     1.08106      -0.19487
    78    C   16  px     Val( 2p)     0.97967       0.08804
    79    C   16  py     Val( 2p)     0.99233       0.08692
    80    C   16  pz     Val( 2p)     1.02158       0.08269
 
    81    C   17  S      Cor( 1S)     1.99996     -10.98383
    82    C   17  S      Val( 2S)     1.08586      -0.19930
    83    C   17  px     Val( 2p)     0.99934       0.08560
    84    C   17  py     Val( 2p)     0.98182       0.08705
    85    C   17  pz     Val( 2p)     1.00152       0.08452
 
    86    C   18  S      Cor( 1S)     1.99995     -10.98082
    87    C   18  S      Val( 2S)     1.09238      -0.20150
    88    C   18  px     Val( 2p)     1.00355       0.08171
    89    C   18  py     Val( 2p)     0.97078       0.08315
    90    C   18  pz     Val( 2p)     1.00771       0.09353
 
    91    C   19  S      Cor( 1S)     1.99994     -11.00579
    92    C   19  S      Val( 2S)     1.07176      -0.19053
    93    C   19  px     Val( 2p)     1.01893       0.07641
    94    C   19  py     Val( 2p)     0.99445       0.08260
    95    C   19  pz     Val( 2p)     0.88275       0.11201
 
    96    C   20  S      Cor( 1S)     1.99992     -10.98819
    97    C   20  S      Val( 2S)     1.09974      -0.21606
    98    C   20  px     Val( 2p)     1.02478       0.07072
    99    C   20  py     Val( 2p)     0.98069       0.08813
   100    C   20  pz     Val( 2p)     0.96871       0.08045
 
   101    C   21  S      Cor( 1S)     1.99994     -11.01168
   102    C   21  S      Val( 2S)     1.11079      -0.24231
   103    C   21  px     Val( 2p)     1.01228       0.06081
   104    C   21  py     Val( 2p)     0.99384       0.06495
   105    C   21  pz     Val( 2p)     0.96771       0.07771
 
   106    C   22  S      Cor( 1S)     1.99991     -11.11526
   107    C   22  S      Val( 2S)     1.05471      -0.26408
   108    C   22  px     Val( 2p)     0.85845       0.02306
   109    C   22  py     Val( 2p)     0.80108       0.15179
   110    C   22  pz     Val( 2p)     0.88269       0.09075
 
   111    O   23  S      Cor( 1S)     1.99999     -20.10160
   112    O   23  S      Val( 2S)     1.80812      -1.06148
   113    O   23  px     Val( 2p)     1.29377      -0.13511
   114    O   23  py     Val( 2p)     1.35953      -0.13127
   115    O   23  pz     Val( 2p)     1.85013      -0.32463
 
   116    O   24  S      Cor( 1S)     1.99999     -20.21850
   117    O   24  S      Val( 2S)     1.73010      -1.03103
   118    O   24  px     Val( 2p)     1.76000      -0.34047
   119    O   24  py     Val( 2p)     1.61238      -0.27740
   120    O   24  pz     Val( 2p)     1.16437      -0.07577
 
   121    C   25  S      Cor( 1S)     1.99984     -11.04831
   122    C   25  S      Val( 2S)     1.07711      -0.23005
   123    C   25  px     Val( 2p)     1.01621       0.04290
   124    C   25  py     Val( 2p)     1.03564       0.03661
   125    C   25  pz     Val( 2p)     0.83663       0.07542
 
   126    C   26  S      Cor( 1S)     1.99992     -11.01777
   127    C   26  S      Val( 2S)     1.06536      -0.19826
   128    C   26  px     Val( 2p)     0.96007       0.07574
   129    C   26  py     Val( 2p)     0.97245       0.07207
   130    C   26  pz     Val( 2p)     1.01856       0.05941
 
   131    C   27  S      Cor( 1S)     1.99995     -10.98298
   132    C   27  S      Val( 2S)     1.08283      -0.18801
   133    C   27  px     Val( 2p)     0.97988       0.09598
   134    C   27  py     Val( 2p)     1.02445       0.08573
   135    C   27  pz     Val( 2p)     0.99889       0.09145
 
   136    C   28  S      Cor( 1S)     1.99990     -10.95599
   137    C   28  S      Val( 2S)     1.07801      -0.18297
   138    C   28  px     Val( 2p)     0.94911       0.14002
   139    C   28  py     Val( 2p)     0.95758       0.17829
   140    C   28  pz     Val( 2p)     0.99926       0.05088
 
   141    C   29  S      Cor( 1S)     1.99992     -10.94539
   142    C   29  S      Val( 2S)     1.07613      -0.17607
   143    C   29  px     Val( 2p)     0.99414       0.11642
   144    C   29  py     Val( 2p)     0.98247       0.15395
   145    C   29  pz     Val( 2p)     1.01086       0.04261
 
   146    C   30  S      Cor( 1S)     1.99994     -10.94710
   147    C   30  S      Val( 2S)     1.08418      -0.18184
   148    C   30  px     Val( 2p)     0.97662       0.12990
   149    C   30  py     Val( 2p)     0.97440       0.15903
   150    C   30  pz     Val( 2p)     0.99822       0.04741
 
   151    C   31  S      Cor( 1S)     1.99993     -10.94007
   152    C   31  S      Val( 2S)     1.07205      -0.17231
   153    C   31  px     Val( 2p)     1.00084       0.11718
   154    C   31  py     Val( 2p)     0.97361       0.16290
   155    C   31  pz     Val( 2p)     1.04159       0.03611
 
   156    C   32  S      Cor( 1S)     1.99985     -10.98833
   157    C   32  S      Val( 2S)     1.06089      -0.18524
   158    C   32  px     Val( 2p)     0.89515       0.12948
   159    C   32  py     Val( 2p)     0.97043       0.16344
   160    C   32  pz     Val( 2p)     0.95604       0.05436
 
   161    C   33  S      Cor( 1S)     1.99990     -10.94904
   162    C   33  S      Val( 2S)     1.08485      -0.19219
   163    C   33  px     Val( 2p)     0.98026       0.13704
   164    C   33  py     Val( 2p)     0.94705       0.14711
   165    C   33  pz     Val( 2p)     1.00933       0.05168
 
   166    N   34  S      Cor( 1S)     1.99998     -15.26650
   167    N   34  S      Val( 2S)     1.40183      -0.58850
   168    N   34  px     Val( 2p)     1.40920      -0.10652
   169    N   34  py     Val( 2p)     1.09162       0.00952
   170    N   34  pz     Val( 2p)     1.36588      -0.09677
 
   171    C   35  S      Cor( 1S)     1.99996     -11.01138
   172    C   35  S      Val( 2S)     1.10280      -0.23411
   173    C   35  px     Val( 2p)     0.98692       0.05905
   174    C   35  py     Val( 2p)     0.95300       0.11438
   175    C   35  pz     Val( 2p)     0.94685       0.10389
 
   176    C   36  S      Cor( 1S)     1.99996     -11.04895
   177    C   36  S      Val( 2S)     1.11641      -0.25643
   178    C   36  px     Val( 2p)     0.91918       0.08606
   179    C   36  py     Val( 2p)     0.85307       0.12695
   180    C   36  pz     Val( 2p)     0.93193       0.09655
 
   181    C   37  S      Cor( 1S)     1.99991     -11.03085
   182    C   37  S      Val( 2S)     1.10933      -0.24773
   183    C   37  px     Val( 2p)     0.98722       0.07019
   184    C   37  py     Val( 2p)     0.89271       0.08334
   185    C   37  pz     Val( 2p)     0.94219       0.07238
 
   186    C   38  S      Cor( 1S)     1.99993     -10.97706
   187    C   38  S      Val( 2S)     1.10944      -0.21639
   188    C   38  px     Val( 2p)     0.98732       0.08921
   189    C   38  py     Val( 2p)     0.99205       0.09115
   190    C   38  pz     Val( 2p)     0.99585       0.08111
 
   191    C   39  S      Cor( 1S)     1.99996     -10.97757
   192    C   39  S      Val( 2S)     1.09083      -0.19916
   193    C   39  px     Val( 2p)     0.99625       0.09126
   194    C   39  py     Val( 2p)     0.97925       0.08752
   195    C   39  pz     Val( 2p)     1.00872       0.08687
 
   196    C   40  S      Cor( 1S)     1.99998     -11.01064
   197    C   40  S      Val( 2S)     1.09928      -0.22506
   198    C   40  px     Val( 2p)     0.96016       0.10233
   199    C   40  py     Val( 2p)     0.94800       0.10545
   200    C   40  pz     Val( 2p)     0.93277       0.10867
 
   201    N   41  S      Cor( 1S)     1.99999     -15.41544
   202    N   41  S      Val( 2S)     1.39135      -0.65445
   203    N   41  px     Val( 2p)     1.24947      -0.12339
   204    N   41  py     Val( 2p)     1.15953      -0.09752
   205    N   41  pz     Val( 2p)     1.16557      -0.11151
 
   206    C   42  S      Cor( 1S)     1.99992     -11.03519
   207    C   42  S      Val( 2S)     1.09135      -0.23208
   208    C   42  px     Val( 2p)     0.90796       0.08673
   209    C   42  py     Val( 2p)     0.93703       0.06847
   210    C   42  pz     Val( 2p)     1.01470       0.04957
 
   211    C   43  S      Cor( 1S)     1.99995     -10.98892
   212    C   43  S      Val( 2S)     1.08728      -0.20291
   213    C   43  px     Val( 2p)     1.03772       0.07844
   214    C   43  py     Val( 2p)     0.99655       0.08119
   215    C   43  pz     Val( 2p)     0.94203       0.10059
 
   216    C   44  S      Cor( 1S)     1.99994     -10.98487
   217    C   44  S      Val( 2S)     1.09182      -0.20316
   218    C   44  px     Val( 2p)     0.99945       0.08760
   219    C   44  py     Val( 2p)     0.97656       0.09287
   220    C   44  pz     Val( 2p)     0.99478       0.08634
 
   221    C   45  S      Cor( 1S)     1.99993     -10.98662
   222    C   45  S      Val( 2S)     1.09787      -0.20824
   223    C   45  px     Val( 2p)     1.01614       0.08262
   224    C   45  py     Val( 2p)     0.98464       0.08375
   225    C   45  pz     Val( 2p)     0.96553       0.09078
 
   226    C   46  S      Cor( 1S)     1.99993     -11.03131
   227    C   46  S      Val( 2S)     1.09456      -0.23266
   228    C   46  px     Val( 2p)     1.00921       0.06104
   229    C   46  py     Val( 2p)     0.96273       0.05764
   230    C   46  pz     Val( 2p)     0.88750       0.08560
 
   231    C   47  S      Cor( 1S)     1.99991     -10.97196
   232    C   47  S      Val( 2S)     1.10378      -0.20009
   233    C   47  px     Val( 2p)     0.94988       0.10718
   234    C   47  py     Val( 2p)     0.99748       0.10200
   235    C   47  pz     Val( 2p)     1.00964       0.09852
 
   236    C   48  S      Cor( 1S)     1.99994     -11.00107
[...]

 Contributions to Isotropic shielding for atom   93 (    31.7578 ppm):
                         Standard Origin              Atomic Origin
 NLMO      Total    Paramagnetic  Diamagnetic   Paramagnetic  Diamagnetic
   89       0.5606       -0.5285       1.0891        -0.4036       0.9642
   90      -0.3545        0.7594      -1.1138        -0.9445       0.5901
   99       1.8465       -1.0658       2.9123         1.2687       0.5779
  102       1.2188       -1.0684       2.2872         0.1420       1.0769
  103       1.3761        0.8359       0.5402        -0.4450       1.8211
  104      26.2115        0.8843      25.3272         0.5494      25.6621
  105       0.2138       -1.1484       1.3622        -0.4360       0.6498
  106       0.0951       -0.9252       1.0202        -0.8186       0.9137
 Sum       31.1680       -2.2566      33.4246        -1.0877      32.2557

 Contributions to Isotropic shielding for atom   94 (    32.3358 ppm):
                         Standard Origin              Atomic Origin
 NLMO      Total    Paramagnetic  Diamagnetic   Paramagnetic  Diamagnetic
  102       1.3254        0.5477       0.7777         0.3555       0.9699
  105       1.5079        0.0797       1.4282         0.4006       1.1073
  106      26.2462        0.0876      26.1587         0.4175      25.8287
  107       1.8427        3.4387      -1.5960        -0.0009       1.8436
  108       0.0369        0.2547      -0.2178        -1.0952       1.1321
 Sum       30.9591        4.4083      26.5507         0.0775      30.8816

 Contributions to Isotropic shielding for atom   95 (    31.1185 ppm):
                         Standard Origin              Atomic Origin
 NLMO      Total    Paramagnetic  Diamagnetic   Paramagnetic  Diamagnetic
   98      -0.1151        0.3853      -0.5004        -1.0103       0.8952
   99      -0.4394        0.2027      -0.6421        -1.3046       0.8651
  102       0.8894        1.8727      -0.9832        -0.0130       0.9025
  105       0.9095        1.7280      -0.8186        -0.2688       1.1782
  106       2.0038        2.9925      -0.9887         0.1699       1.8338
  107      25.7878       -0.3408      26.1286         0.5749      25.2130
  109       0.0997        0.7654      -0.6657        -0.9143       1.0140
  116      -0.2038       -1.3868       1.1830        -0.5688       0.3650
 Sum       28.9318        6.2191      22.7128        -3.3350      32.2668

 Contributions to Isotropic shielding for atom   96 (    32.8209 ppm):
                         Standard Origin              Atomic Origin
 NLMO      Total    Paramagnetic  Diamagnetic   Paramagnetic  Diamagnetic
   94      -0.0435       -0.7327       0.6892        -1.0042       0.9607
   97       1.9158       -1.2316       3.1474         0.9591       0.9566
  102       0.2640       -1.1197       1.3837        -0.2545       0.5185
  105       1.3088       -0.5241       1.8329         0.1652       1.1436
  106      -0.0209       -1.3637       1.3427        -1.0485       1.0275
  108      26.3216        0.5411      25.7804         0.2714      26.0502
  109       1.8129        1.1312       0.6816        -0.0327       1.8455
 Sum       31.5586       -3.2993      34.8579        -0.9441      32.5027

 Contributions to Isotropic shielding for atom   97 (    32.2081 ppm):
                         Standard Origin              Atomic Origin
 NLMO      Total    Paramagnetic  Diamagnetic   Paramagnetic  Diamagnetic
   97       0.9115        1.3780      -0.4666        -0.0623       0.9738
   98      -0.1895        0.7405      -0.9300        -1.1841       0.9947
  105       0.6161        2.5626      -1.9465        -0.4654       1.0816
  107       0.1425       -0.4151       0.5576        -0.9764       1.1189
  108       2.3251        0.3941       1.9309         0.5969       1.7282
  109      26.3060       -0.1044      26.4104         0.5662      25.7398
  117       0.0489       -1.0285       1.0774        -0.8119       0.8608
 Sum       30.1606        3.5274      26.6333        -2.3372      32.4978

 Contributions to Isotropic shielding for atom   98 (    32.3732 ppm):
                         Standard Origin              Atomic Origin
 NLMO      Total    Paramagnetic  Diamagnetic   Paramagnetic  Diamagnetic
   71      -0.9204        0.0700      -0.9904        -1.9247       1.0042
   80      -0.0071        0.9481      -0.9552        -1.0890       1.0819
   85       1.5905       -1.0287       2.6192         0.9643       0.6263
   89      -0.0924        0.0923      -0.1846        -1.0317       0.9393
  111      26.1336        0.1460      25.9877         0.6319      25.5017
  112       1.7153        3.1641      -1.4488        -0.1948       1.9101
  122       0.5973       -0.4999       1.0972         0.1114       0.4859
  124       0.0322       -1.1036       1.1359        -0.5870       0.6193
  125       0.0785       -0.9307       1.0091        -0.5070       0.5855
 Sum       29.1276        0.8576      28.2700        -3.6266      32.7542

 Contributions to Isotropic shielding for atom   99 (    30.5685 ppm):
                         Standard Origin              Atomic Origin
 NLMO      Total    Paramagnetic  Diamagnetic   Paramagnetic  Diamagnetic
   83      -0.3803        1.1637      -1.5440        -0.7710       0.3907
   87      -0.1958       -0.1004      -0.0954        -1.0468       0.8510
   89      -0.2475       -0.0633      -0.1842        -1.1276       0.8801
  100      -0.2691       -0.0327      -0.2364        -1.1260       0.8569
  110       0.8110        1.5074      -0.6964         0.0846       0.7264
  111       1.5845        2.7993      -1.2147        -0.3256       1.9102
  112      25.6731       -0.1277      25.8008         0.6886      24.9845
  118       0.3529       -1.0666       1.4195        -0.4631       0.8160
  122       1.2157       -1.1908       2.4065         0.1845       1.0311
  124       0.1771       -1.3531       1.5302        -0.5268       0.7039
  125       0.1881       -2.3319       2.5199        -0.6290       0.8171
  193      -0.6221        1.1495      -1.7715         0.4821      -1.1041
  194      -0.8326       -1.2747       0.4421        -0.8053      -0.0274
  195       0.0430       -0.0305       0.0736         1.0786      -1.0356
 Sum       27.4980       -0.9518      28.4498        -4.3029      31.8009

 Contributions to Isotropic shielding for atom  100 (    31.3789 ppm):
                         Standard Origin              Atomic Origin
 NLMO      Total    Paramagnetic  Diamagnetic   Paramagnetic  Diamagnetic
   71      -0.0328       -0.2754       0.2426        -1.1810       1.1482
   85       0.3611       -0.8686       1.2297        -0.4306       0.7917
  100       1.7920       -1.6189       3.4109         1.3356       0.4564
  110       1.1188       -0.9803       2.0992         0.2936       0.8253
  113      26.2710        0.9155      25.3555         0.6028      25.6682
  114       1.2572        1.0198       0.2374        -0.5838       1.8410
 Sum       30.7674       -1.8079      32.5752         0.0366      30.7308

 Contributions to Isotropic shielding for atom  101 (    30.7979 ppm):
                         Standard Origin              Atomic Origin
 NLMO      Total    Paramagnetic  Diamagnetic   Paramagnetic  Diamagnetic
  100      -0.1978        1.0092      -1.2070        -0.9682       0.7704
  101      -0.0463        0.3835      -0.4298        -1.0633       1.0170
  110       0.2982        1.9375      -1.6393        -0.6845       0.9827
  112       0.1149       -0.0379       0.1528        -0.9127       1.0276
  113       1.7948       -0.1796       1.9745         0.1014       1.6935
  114      25.9354        0.4096      25.5258         1.0589      24.8765
  195       0.2779       -0.6913       0.9692         1.1070      -0.8291
 Sum       28.1772        2.8311      25.3461        -1.3613      29.5386

 Contributions to Isotropic shielding for atom  102 (    30.1021 ppm):
                         Standard Origin              Atomic Origin
 NLMO      Total    Paramagnetic  Diamagnetic   Paramagnetic  Diamagnetic
   87       0.3759       -0.8583       1.2342         0.2540       0.1220
   89      -0.4266        0.1343      -0.5609        -1.3156       0.8890
   97      -0.2377        1.2583      -1.4960        -1.0427       0.8050
   98       1.6876       -0.8944       2.5820         0.7900       0.8977
  115       0.2025        2.3258      -2.1233        -0.6870       0.8894
  116      25.3130       -0.1053      25.4183         0.6728      24.6401
  117       1.5180        2.9030      -1.3850        -0.3993       1.9173
  118       0.0283       -0.1744       0.2027        -1.1247       1.1530
  120       0.4632       -1.7256       2.1888        -0.4246       0.8878
  121       0.6387       -2.3437       2.9824        -0.9307       1.5695
  191      -0.6938        1.1335      -1.8274         0.1487      -0.8426
 Sum       28.8691        1.6532      27.2159        -4.0591      32.9281

 Contributions to Isotropic shielding for atom  103 (    31.8324 ppm):
                         Standard Origin              Atomic Origin
 NLMO      Total    Paramagnetic  Diamagnetic   Paramagnetic  Diamagnetic
   87       0.4067       -0.8999       1.3067         0.1045       0.3023
   94      -0.2886        1.3020      -1.5906        -1.2433       0.9546
   97      -0.1164        1.0900      -1.2064        -0.7348       0.6184
   98       1.8567       -0.8885       2.7452         0.8698       0.9869
  115       0.5416        2.3956      -1.8540        -0.5543       1.0959
  116       1.7361        2.8502      -1.1141        -0.3026       2.0387
  117      26.6608       -0.2453      26.9062         0.5772      26.0836
  119      -0.1648       -1.0275       0.8627        -1.2863       1.1215
  120       0.1206       -0.8942       1.0148        -0.6556       0.7762
  121       0.3437       -1.0704       1.4141        -0.8616       1.2054
 Sum       31.0966        2.6118      28.4847        -4.0870      35.1835

 Contributions to Isotropic shielding for atom  104 (    31.4649 ppm):
                         Standard Origin              Atomic Origin
 NLMO      Total    Paramagnetic  Diamagnetic   Paramagnetic  Diamagnetic
   81      -0.6223        1.3885      -2.0108        -1.3203       0.6980
   86      -0.2777        1.3508      -1.6284        -1.4227       1.1450
   87       1.6815        0.1052       1.5763         0.6865       0.9950
  115       1.5251        1.3666       0.1585         0.2906       1.2346
  117      -0.2355        0.3809      -0.6164        -1.3850       1.1495
  118       0.2589        5.1137      -4.8548        -0.9134       1.1723
  119      26.0531       -0.7179      26.7710         0.3295      25.7235
  122       0.4561       -1.2672       1.7233        -0.6135       1.0695
  127      -0.2525       -2.5348       2.2823        -0.7404       0.4879
 Sum       28.5867        5.1857      23.4011        -5.0887      33.6754

 Contributions to Isotropic shielding for atom  105 (    30.6096 ppm):
                         Standard Origin              Atomic Origin
 NLMO      Total    Paramagnetic  Diamagnetic   Paramagnetic  Diamagnetic
  120      -0.5550        0.2417      -0.7966        -1.2020       0.6470
  121      -0.0607        0.7857      -0.8464        -1.1007       1.0400
  122      -0.6676        0.4820      -1.1497        -0.7045       0.0368
  123       1.6247       -1.4598       3.0845        -0.4692       2.0939
  124      26.0126        0.4355      25.5771         0.7220      25.2906
  125       1.2368        0.9229       0.3139        -0.7591       1.9959
  126       0.5937        3.3579      -2.7642        -1.3868       1.9805
  193       0.8960       -0.5315       1.4275         1.3798      -0.4838
 Sum       29.0805        4.2343      24.8462        -3.5204      32.6009

 Contributions to Isotropic shielding for atom  106 (    30.4840 ppm):
                         Standard Origin              Atomic Origin
 NLMO      Total    Paramagnetic  Diamagnetic   Paramagnetic  Diamagnetic
  120      -0.8651        0.4417      -1.3068        -1.7661       0.9010
  121      -0.1518        0.8799      -1.0318        -1.7234       1.5716
  122      -1.5903        1.6228      -3.2131        -2.4258       0.8356
  123       2.5215       -4.0278       6.5493         1.1038       1.4177
  124       1.5717        1.5579       0.0137        -0.4618       2.0335
  125      26.2045        0.9282      25.2763         1.0666      25.1380
  126       0.9160        2.7099      -1.7939        -0.9518       1.8678
  191       0.2185       -0.8807       1.0992         0.9731      -0.7546
  193       0.9061       -0.3912       1.2972         0.9552      -0.0491
 Sum       29.7312        2.8408      26.8904        -3.2302      32.9614

 Contributions to Isotropic shielding for atom  107 (    30.5711 ppm):
                         Standard Origin              Atomic Origin
 NLMO      Total    Paramagnetic  Diamagnetic   Paramagnetic  Diamagnetic
  120      -0.9840        0.5908      -1.5748        -1.9220       0.9380
  121      -0.4816        1.6587      -2.1403        -1.9917       1.5101
  122      -2.1523        1.5757      -3.7280        -2.9148       0.7625
  123       1.2176        0.5851       0.6325        -0.2682       1.4858
  124       1.2776        3.9846      -2.7069        -0.7535       2.0311
  125       1.1804        2.1890      -1.0085        -0.6901       1.8705
  126      26.6062        0.6115      25.9947         1.3051      25.3011
  191       0.4742       -1.4160       1.8902         1.2374      -0.7632
  192       0.8388        0.8000       0.0387         1.0906      -0.2518
  193       1.5259       -1.5326       3.0585         1.5897      -0.0638
  194       0.3440        1.3082      -0.9642        -0.1132       0.4573
 Sum       29.8468       10.3550      19.4918        -3.4308      33.2776

 Contributions to Isotropic shielding for atom  108 (    31.3249 ppm):
                         Standard Origin              Atomic Origin
 NLMO      Total    Paramagnetic  Diamagnetic   Paramagnetic  Diamagnetic
   76      -0.5147       -0.0122      -0.5025        -1.3562       0.8416
   81      -0.4515        1.0142      -1.4657        -1.1918       0.7403
   82       1.2775       -0.2409       1.5184         0.0574       1.2201
   87      -0.2560        1.1329      -1.3889        -1.1581       0.9021
  127      26.0599        0.1713      25.8886         0.6301      25.4298
  128       1.5042        3.9822      -2.4780        -0.4827       1.9869
  129       1.6568        0.8317       0.8250        -0.1568       1.8136
 Sum       29.2763        6.8792      22.3970        -3.6581      32.9344

 Contributions to Isotropic shielding for atom  109 (    30.7214 ppm):
                         Standard Origin              Atomic Origin
 NLMO      Total    Paramagnetic  Diamagnetic   Paramagnetic  Diamagnetic
   75      -0.5727        0.7236      -1.2963        -1.2850       0.7123
   76      -0.9336        0.2589      -1.1924        -2.2890       1.3555
   79      -0.5164        0.9047      -1.4211        -1.1533       0.6370
   82       1.2389        0.2414       0.9976         0.0134       1.2255
  127       1.5475        3.9344      -2.3869        -0.4214       1.9689
  128      26.0236        0.0986      25.9251         0.6888      25.3348
  129       1.6439        1.2284       0.4155        -0.1572       1.8011
 Sum       28.4314        7.3900      21.0414        -4.6037      33.0351

 Contributions to Isotropic shielding for atom  110 (    31.9817 ppm):
                         Standard Origin              Atomic Origin
 NLMO      Total    Paramagnetic  Diamagnetic   Paramagnetic  Diamagnetic
   76      -0.7617       -0.1126      -0.6491        -1.9466       1.1849
   82       2.0344       -3.1942       5.2286         1.2655       0.7689
   86      -0.2431        0.7629      -1.0059        -1.3179       1.0748
   92      -0.0419        1.1448      -1.1867        -0.8917       0.8498
  127       1.8433        1.7119       0.1314        -0.0589       1.9022
  128       1.8165        2.2543      -0.4378        -0.0820       1.8985
  129      26.4832        0.8103      25.6729         0.7658      25.7175
 Sum       31.1308        3.3774      27.7534        -2.2659      33.3967
 
 1\1\GINC-PCSN02\SP\RHF\STO-3G\C45H56N4O5\ABENIDD\30-May-2024\0\\# nmr=
 giao hf/sto-3g pop=nbo geom=connectivity\\Pleiokomenine_C_2\\0,1\C,0,0
 .,0.,0.\C,0,1.4015,0.,0.\C,0,2.0915,1.2301,0.\C,0,1.4028,2.4515,-0.008
 \C,0,0.019,2.442,0.0021\C,0,-0.6644,1.2152,0.0354\N,0,-0.8685,3.5507,-
 0.0051\C,0,-2.1361,1.4864,0.216\C,0,-2.1561,2.9328,-0.4149\C,0,-3.1827
 ,0.608,-0.4818\C,0,-2.1956,2.7976,-1.9985\C,0,-3.4656,2.0711,-2.4626\C
 ,0,-4.2118,1.523,-1.2293\N,0,-3.725,-0.2438,0.5835\C,0,-4.9729,-0.9181
 ,0.2506\C,0,-6.0242,-0.0463,-0.4357\C,0,-5.438,0.6946,-1.6377\C,0,-2.4
 234,1.3033,1.728\C,0,-3.7311,0.5286,1.8168\C,0,-4.6473,2.7882,-0.4133\
 C,0,-3.4414,3.7042,-0.0682\C,0,-3.5386,4.2808,1.3332\O,0,-4.2571,3.845
 5,2.2245\O,0,-2.7697,5.3998,1.4473\C,0,-2.7795,5.9869,2.7484\C,0,-0.38
 33,4.7719,-0.6294\C,0,2.1601,-1.3071,0.1063\C,0,2.3532,-1.7541,1.5414\
 C,0,1.2457,-2.1471,2.306\C,0,3.6355,-1.755,2.1312\C,0,3.8217,-2.1085,3
 .4762\C,0,2.7155,-2.4369,4.2378\C,0,1.4389,-2.4694,3.6374\N,0,2.6459,-
 2.713,5.6327\C,0,0.4463,-2.9409,4.675\C,0,1.2231,-2.3919,5.921\C,0,-0.
 972,-2.4006,4.7484\C,0,1.0985,-0.7791,5.96\C,0,-0.3569,-0.3124,5.8768\
 C,0,-1.2803,-1.5369,5.9799\N,0,-1.8815,-3.6164,4.6998\C,0,-3.2538,-3.1
 456,4.3507\C,0,-3.7538,-2.2324,5.4884\C,0,-2.7681,-1.1135,5.8988\C,0,0
 .2517,-4.4456,4.3372\C,0,-1.1689,-4.4967,3.7425\C,0,-0.8713,-2.2379,7.
 3221\C,0,0.5962,-2.8042,7.2729\C,0,0.6579,-4.2505,7.737\O,0,-0.0455,-4
 .7014,8.6361\O,0,1.6864,-4.9358,7.1744\C,0,1.8035,-6.2875,7.6155\C,0,3
 .7186,-2.2256,6.4795\O,0,-1.9703,-4.3323,5.8656\H,0,-0.5632,-0.9275,0.
 032\H,0,3.1792,1.2415,0.0265\H,0,1.9605,3.3809,0.0005\H,0,-2.7077,-0.0
 585,-1.2145\H,0,-1.3186,2.262,-2.3828\H,0,-2.1602,3.7876,-2.4712\H,0,-
 4.1052,2.7602,-3.0284\H,0,-3.1957,1.2644,-3.1554\H,0,-4.7282,-1.749,-0
 .4238\H,0,-5.4036,-1.3867,1.144\H,0,-6.8529,-0.6797,-0.7735\H,0,-6.451
 ,0.6629,0.2817\H,0,-5.1538,-0.0406,-2.4018\H,0,-6.2066,1.3332,-2.0893\
 H,0,-1.6505,0.684,2.2072\H,0,-2.4354,2.2296,2.3011\H,0,-3.7351,-0.1257
 ,2.6947\H,0,-4.5898,1.1953,1.9054\H,0,-5.2206,2.5127,0.4719\H,0,-5.352
 6,3.3763,-1.0182\H,0,-3.523,4.5834,-0.7258\H,0,-3.7819,6.3499,2.9955\H
 ,0,-2.4299,5.2694,3.4975\H,0,-2.0944,6.8391,2.7404\H,0,0.0176,4.5891,-
 1.6328\H,0,0.4006,5.2297,-0.0166\H,0,-1.1882,5.5077,-0.7194\H,0,1.628,
 -2.0928,-0.4461\H,0,3.13,-1.2073,-0.3976\H,0,0.2549,-2.1859,1.8688\H,0
 ,4.5039,-1.4624,1.5445\H,0,4.8165,-2.0886,3.9055\H,0,-1.195,-1.8382,3.
 8293\H,0,1.6672,-0.282,5.1647\H,0,1.5451,-0.4023,6.8906\H,0,-0.5648,0.
 4116,6.6742\H,0,-0.5181,0.2182,4.9294\H,0,-3.8809,-4.0369,4.2442\H,0,-
 3.1952,-2.622,3.391\H,0,-4.7105,-1.7839,5.1966\H,0,-3.9626,-2.8441,6.3
 751\H,0,-2.8651,-0.3157,5.1497\H,0,-3.0901,-0.6746,6.8507\H,0,0.9739,-
 4.8665,3.6282\H,0,0.2882,-5.0729,5.228\H,0,-1.2434,-4.0482,2.7469\H,0,
 -1.621,-5.4924,3.7635\H,0,-1.5998,-2.9904,7.6323\H,0,-0.9146,-1.4908,8
 .1285\H,0,1.1601,-2.2906,8.067\H,0,2.6122,-6.7587,7.0501\H,0,0.879,-6.
 8402,7.4201\H,0,2.0595,-6.3207,8.679\H,0,3.504,-2.444,7.5303\H,0,4.659
 5,-2.7313,6.2372\H,0,3.8664,-1.145,6.3786\\Version=ES64L-G16RevB.01\St
 ate=1-A\HF=-2300.1984692\RMSD=3.926e-09\Dipole=0.05337,1.7857539,-1.78
 14534\Quadrupole=6.6454186,-0.3991397,-6.2462789,-3.9785961,12.004252,
 11.2284386\PG=C01 [X(C45H56N4O5)]\\@


 STEINBACH'S GUIDELINES FOR SYSTEMS PROGRAMMING:
 NEVER TEST FOR AN ERROR CONDITION YOU DON'T KNOW HOW
 TO HANDLE.
 Job cpu time:       0 days  0 hours 11 minutes 56.3 seconds.
 Elapsed time:       0 days  0 hours  1 minutes 59.8 seconds.
 File lengths (MBytes):  RWF=     67 Int=      0 D2E=      0 Chk=     10 Scr=      1
 Normal termination of Gaussian 16 at Thu May 30 10:13:05 2024.
