 Entering Gaussian System, Link 0=g16
 Input=1_pleiokomenine_1a_c_13.gjf
 Output=1_pleiokomenine_1a_c_13.log
 Initial command:
 /opt/gaussian/g16/l1.exe "/data/abenidd/Elvis/pleiokomenine_C/NMR_HF/1a/1_pleiokomenine_1a_c_13/Gau-24378.inp" -scrdir="/data/abenidd/Elvis/pleiokomenine_C/NMR_HF/1a/1_pleiokomenine_1a_c_13/"
 Entering Link 1 = /opt/gaussian/g16/l1.exe PID=     24380.
  
 Copyright (c) 1988-2017, Gaussian, Inc.  All Rights Reserved.
  
 This is part of the Gaussian(R) 16 program.  It is based on
 the Gaussian(R) 09 system (copyright 2009, Gaussian, Inc.),
 the Gaussian(R) 03 system (copyright 2003, Gaussian, Inc.),
 the Gaussian(R) 98 system (copyright 1998, Gaussian, Inc.),
 the Gaussian(R) 94 system (copyright 1995, Gaussian, Inc.),
 the Gaussian 92(TM) system (copyright 1992, Gaussian, Inc.),
 the Gaussian 90(TM) system (copyright 1990, Gaussian, Inc.),
 the Gaussian 88(TM) system (copyright 1988, Gaussian, Inc.),
 the Gaussian 86(TM) system (copyright 1986, Carnegie Mellon
 University), and the Gaussian 82(TM) system (copyright 1983,
 Carnegie Mellon University). Gaussian is a federally registered
 trademark of Gaussian, Inc.
  
 This software contains proprietary and confidential information,
 including trade secrets, belonging to Gaussian, Inc.
  
 This software is provided under written license and may be
 used, copied, transmitted, or stored only in accord with that
 written license.
  
 The following legend is applicable only to US Government
 contracts under FAR:
  
                    RESTRICTED RIGHTS LEGEND
  
 Use, reproduction and disclosure by the US Government is
 subject to restrictions as set forth in subparagraphs (a)
 and (c) of the Commercial Computer Software - Restricted
 Rights clause in FAR 52.227-19.
  
 Gaussian, Inc.
 340 Quinnipiac St., Bldg. 40, Wallingford CT 06492
  
  
 ---------------------------------------------------------------
 Warning -- This program may not be used in any manner that
 competes with the business of Gaussian, Inc. or will provide
 assistance to any competitor of Gaussian, Inc.  The licensee
 of this program is prohibited from giving any competitor of
 Gaussian, Inc. access to this program.  By using this program,
 the user acknowledges that Gaussian, Inc. is engaged in the
 business of creating and licensing software in the field of
 computational chemistry and represents and warrants to the
 licensee that it is not a competitor of Gaussian, Inc. and that
 it will not use this program in any manner prohibited above.
 ---------------------------------------------------------------
  

 Cite this work as:
 Gaussian 16, Revision B.01,
 M. J. Frisch, G. W. Trucks, H. B. Schlegel, G. E. Scuseria, 
 M. A. Robb, J. R. Cheeseman, G. Scalmani, V. Barone, 
 G. A. Petersson, H. Nakatsuji, X. Li, M. Caricato, A. V. Marenich, 
 J. Bloino, B. G. Janesko, R. Gomperts, B. Mennucci, H. P. Hratchian, 
 J. V. Ortiz, A. F. Izmaylov, J. L. Sonnenberg, D. Williams-Young, 
 F. Ding, F. Lipparini, F. Egidi, J. Goings, B. Peng, A. Petrone, 
 T. Henderson, D. Ranasinghe, V. G. Zakrzewski, J. Gao, N. Rega, 
 G. Zheng, W. Liang, M. Hada, M. Ehara, K. Toyota, R. Fukuda, 
 J. Hasegawa, M. Ishida, T. Nakajima, Y. Honda, O. Kitao, H. Nakai, 
 T. Vreven, K. Throssell, J. A. Montgomery, Jr., J. E. Peralta, 
 F. Ogliaro, M. J. Bearpark, J. J. Heyd, E. N. Brothers, K. N. Kudin, 
 V. N. Staroverov, T. A. Keith, R. Kobayashi, J. Normand, 
 K. Raghavachari, A. P. Rendell, J. C. Burant, S. S. Iyengar, 
 J. Tomasi, M. Cossi, J. M. Millam, M. Klene, C. Adamo, R. Cammi, 
 J. W. Ochterski, R. L. Martin, K. Morokuma, O. Farkas, 
 J. B. Foresman, and D. J. Fox, Gaussian, Inc., Wallingford CT, 2016.
 
 ******************************************
 Gaussian 16:  ES64L-G16RevB.01 20-Dec-2017
                30-May-2024 
 ******************************************
 %nprocshared=8
 Will use up to    8 processors via shared memory.
 ----------------------------------------------
 # nmr=giao hf/sto-3g pop=nbo geom=connectivity
 ----------------------------------------------
 1/38=1,57=2,172=1/1;
 2/12=2,17=6,18=5,40=1/2;
 3/6=3,11=9,25=1,30=1/1,2,3,8;
 4//1;
 5/5=2,38=5/2;
 8/6=1,10=90,11=11/1;
 10/13=100,45=16/2;
 6/7=2,8=2,9=2,10=2,28=1,40=1,64=1/1,7;
 99/9=1/99;
 ------------------
 pleiokomenine_C_1a
 ------------------
 Symbolic Z-matrix:
 Charge =  0 Multiplicity = 1
 C                     0.        0.        0. 
 C                     1.4021    0.        0. 
 C                     2.0962    1.229     0. 
 C                     1.4124    2.4529   -0.0089 
 C                     0.0297    2.4451   -0.0066 
 C                    -0.6606    1.2167    0.0199 
 N                    -0.8597    3.5521   -0.0207 
 C                    -2.1296    1.5127    0.1922 
 C                    -2.1283    2.9339   -0.4755 
 C                    -3.2077    0.6537   -0.4656 
 C                    -2.066     2.7673   -2.0607 
 C                    -3.2406    1.9414   -2.5897 
 C                    -4.1088    1.4742   -1.4152 
 N                    -4.0641    0.239     0.6505 
 C                    -4.9826   -0.8101    0.2662 
 C                    -5.9615   -0.1955   -0.75 
 C                    -5.261     0.5596   -1.8968 
 C                    -2.4008    1.3362    1.7113 
 C                    -3.1921    0.0278    1.7836 
 C                    -4.6282    2.7656   -0.6888 
 C                    -3.4507    3.6955   -0.2383 
 C                    -3.5992    4.3619    1.124 
 O                    -2.8356    5.2189    1.555 
 O                    -4.7233    3.9667    1.7814 
 C                    -4.907     4.5792    3.0579 
 C                    -0.3792    4.8042   -0.5754 
 C                     2.1569   -1.3096    0.0984 
 C                     2.3531   -1.7664    1.5281 
 C                     1.2571   -2.2308    2.2678 
 C                     3.6204   -1.7093    2.1403 
 C                     3.7972   -2.0873    3.4788 
 C                     2.6966   -2.4956    4.2144 
 C                     1.4389   -2.5765    3.5964 
 N                     2.6385   -2.8395    5.5919 
 C                     0.4304   -3.1043    4.5855 
 C                     1.198    -2.6603    5.8973 
 C                    -0.9981   -2.5317    4.6253 
 C                     0.9054   -1.117     6.1631 
 C                    -0.5905   -0.865     6.3971 
 C                    -1.3684   -2.1642    6.1022 
 N                    -1.8744   -3.5844    3.9672 
 C                    -3.3363   -3.4637    4.3099 
 C                    -3.6498   -3.1694    5.7636 
 C                    -2.8781   -1.9463    6.2435 
 C                     0.2465   -4.6114    4.2743 
 C                    -1.2494   -4.8891    4.3501 
 C                    -0.8669   -3.189     7.1772 
 C                     0.6725   -3.3664    7.1562 
 C                     1.0808   -4.8153    7.3539 
 O                     0.3341   -5.7747    7.2014 
 O                     2.3661   -4.9025    7.7922 
 C                     2.8388   -6.2387    7.9621 
 C                     3.6698   -2.2709    6.4476 
 O                    -1.7973   -3.4494    2.5869 
 H                    -0.5577   -0.9312    0.0432 
 H                     3.1837    1.2362    0.0271 
 H                     1.9704    3.3817    0.0011 
 H                    -2.764    -0.2116   -0.9772 
 H                    -1.1309    2.301    -2.3948 
 H                    -2.0753    3.7538   -2.5434 
 H                    -3.8309    2.5403   -3.2942 
 H                    -2.8574    1.0843   -3.1575 
 H                    -4.4621   -1.6733   -0.1654 
 H                    -5.5525   -1.165     1.1323 
 H                    -6.6003   -0.9826   -1.167 
 H                    -6.629     0.5015   -0.2268 
 H                    -4.8568   -0.1899   -2.5904 
 H                    -6.0011    1.1384   -2.4622 
 H                    -3.0104    2.1425    2.119 
 H                    -1.5021    1.2741    2.3365 
 H                    -2.5457   -0.8476    1.6607 
 H                    -3.7385   -0.0538    2.7278 
 H                    -5.2708    3.3318   -1.377 
 H                    -5.2787    2.4865    0.1445 
 H                    -3.4822    4.5603   -0.9196 
 H                    -5.0401    5.6599    2.948 
 H                    -5.8135    4.1625    3.5055 
 H                    -4.0624    4.3556    3.7174 
 H                     0.0298    4.6747   -1.5836 
 H                     0.398     5.2349    0.0648 
 H                    -1.1889    5.538    -0.6325 
 H                     3.1266   -1.2105   -0.4064 
 H                     1.6231   -2.0899   -0.4603 
 H                     0.2748   -2.32      1.8131 
 H                     4.4815   -1.3595    1.5756 
 H                     4.7844   -2.0325    3.9224 
 H                    -1.1125   -1.6454    3.9855 
 H                     1.465    -0.7637    7.0388 
 H                     1.2448   -0.489     5.3299 
 H                    -0.7571   -0.5375    7.4311 
 H                    -0.931    -0.0421    5.7561 
 H                    -3.7153   -2.6449    3.6845 
 H                    -3.8087   -4.3941    3.9752 
 H                    -4.7247   -2.98      5.8665 
 H                    -3.4332   -4.0419    6.3871 
 H                    -3.1884   -1.072     5.6564 
 H                    -3.1425   -1.7308    7.2857 
 H                     0.56     -4.8409    3.2458 
 H                     0.8384   -5.283     4.8939 
 H                    -1.581    -5.6492    3.6351 
 H                    -1.5926   -5.159     5.3466 
 H                    -1.3877   -4.1421    7.0919 
 H                    -1.1466   -2.8216    8.1755 
 H                     1.0581   -2.8523    8.05 
 H                     2.2768   -6.744     8.7536 
 H                     3.89     -6.1908    8.2593 
 H                     2.7705   -6.7941    7.0213 
 H                     3.4506   -2.4667    7.5016 
 H                     4.6403   -2.731     6.2332 
 H                     3.7597   -1.1861    6.3205 
 
 Stoichiometry    C45H56N4O5
 Framework group  C1[X(C45H56N4O5)]
 Deg. of freedom   324
 Full point group                 C1      NOp   1
 Largest Abelian subgroup         C1      NOp   1
 Largest concise Abelian subgroup C1      NOp   1
                         Standard orientation:                         
 ---------------------------------------------------------------------
 Center     Atomic      Atomic             Coordinates (Angstroms)
 Number     Number       Type             X           Y           Z
 ---------------------------------------------------------------------
      1          6           0       -1.684334    1.938991   -1.317251
      2          6           0       -1.099483    3.210188   -1.228429
      3          6           0       -1.602029    4.141731   -0.294678
      4          6           0       -2.681748    3.825814    0.541979
      5          6           0       -3.252007    2.569498    0.450319
      6          6           0       -2.731281    1.632463   -0.464554
      7          7           0       -4.345479    2.040209    1.185745
      8          6           0       -3.424393    0.314338   -0.224961
      9          6           0       -4.767667    0.893930    0.345410
     10          6           0       -3.742012   -0.648853   -1.367005
     11          6           0       -5.650129    1.452883   -0.860130
     12          6           0       -5.946796    0.366186   -1.895850
     13          6           0       -5.255202   -0.938498   -1.482335
     14          7           0       -3.116755   -1.909907   -0.954848
     15          6           0       -3.070021   -2.868911   -2.036544
     16          6           0       -4.525643   -3.256897   -2.351620
     17          6           0       -5.454985   -2.042950   -2.548295
     18          6           0       -2.450303   -0.495728    0.673541
     19          6           0       -1.890798   -1.559709   -0.274190
     20          6           0       -5.838658   -1.340841   -0.081319
     21          6           0       -5.658112   -0.199027    0.975959
     22          6           0       -5.276557   -0.636802    2.384778
     23          8           0       -5.234173    0.118511    3.349661
     24          8           0       -5.069475   -1.978516    2.479014
     25          6           0       -4.722847   -2.432046    3.787644
     26          6           0       -5.307471    2.973938    1.741667
     27          6           0        0.122438    3.538719   -2.061157
     28          6           0        1.414853    3.114130   -1.397387
     29          6           0        1.730994    1.752661   -1.294939
     30          6           0        2.298983    4.067280   -0.855246
     31          6           0        3.474079    3.675747   -0.198300
     32          6           0        3.749518    2.325309   -0.058344
     33          6           0        2.881014    1.376998   -0.621092
     34          7           0        4.829645    1.715823    0.635198
     35          6           0        3.434333   -0.006232   -0.387689
     36          6           0        4.308989    0.349183    0.883461
     37          6           0        2.494941   -1.174191   -0.036290
     38          6           0        3.362632    0.372319    2.164832
     39          6           0        2.726195   -1.002168    2.413247
     40          6           0        3.050052   -1.925853    1.220797
     41          7           0        2.386144   -2.001955   -1.305992
     42          6           0        1.918166   -3.415171   -1.075817
     43          6           0        2.529279   -4.125385    0.115937
     44          6           0        2.370432   -3.289458    1.379975
     45          6           0        4.129506   -0.436914   -1.704223
     46          6           0        3.733076   -1.887434   -1.947972
     47          6           0        4.608586   -2.091734    1.249040
     48          6           0        5.351584   -0.732483    1.203699
     49          6           0        6.582380   -0.786402    0.316379
     50          8           0        6.791508   -1.647052   -0.530270
     51          8           0        7.455580    0.207197    0.635737
     52          6           0        8.622792    0.248911   -0.185006
     53          6           0        5.441718    2.497321    1.699968
     54          8           0        1.446781   -1.425657   -2.151495
     55          1           0       -1.289137    1.189541   -1.997084
     56          1           0       -1.135679    5.120181   -0.201958
     57          1           0       -3.041182    4.556707    1.256637
     58          1           0       -3.327101   -0.283991   -2.316780
     59          1           0       -5.173648    2.300541   -1.367980
     60          1           0       -6.599115    1.852538   -0.478071
     61          1           0       -7.030462    0.219801   -1.983569
     62          1           0       -5.598420    0.697479   -2.882125
     63          1           0       -2.573163   -2.461329   -2.924982
     64          1           0       -2.524002   -3.769801   -1.734668
     65          1           0       -4.552048   -3.886671   -3.248374
     66          1           0       -4.918005   -3.870031   -1.529901
     67          1           0       -5.247810   -1.623028   -3.541751
     68          1           0       -6.499045   -2.377779   -2.564508
     69          1           0       -2.962971   -0.989892    1.498723
     70          1           0       -1.634772    0.089464    1.114962
     71          1           0       -1.135742   -1.146810   -0.951439
     72          1           0       -1.461068   -2.398856    0.280688
     73          1           0       -6.912619   -1.548273   -0.184828
     74          1           0       -5.396130   -2.284921    0.247800
     75          1           0       -6.665190    0.218656    1.132084
     76          1           0       -5.545288   -2.249270    4.486136
     77          1           0       -4.545585   -3.509838    3.735988
     78          1           0       -3.803818   -1.947379    4.132275
     79          1           0       -5.699476    3.658538    0.981290
     80          1           0       -4.850611    3.565024    2.542476
     81          1           0       -6.154732    2.439869    2.182414
     82          1           0        0.139572    4.615314   -2.274726
     83          1           0        0.044645    3.054392   -3.043670
     84          1           0        1.087361    0.996014   -1.734079
     85          1           0        2.070861    5.127603   -0.935336
     86          1           0        4.134813    4.432182    0.208621
     87          1           0        1.466021   -0.840608    0.158656
     88          1           0        3.929521    0.666351    3.057584
     89          1           0        2.565540    1.120113    2.068674
     90          1           0        3.108236   -1.427150    3.350052
     91          1           0        1.643054   -0.888757    2.547145
     92          1           0        0.831605   -3.343022   -0.936611
     93          1           0        2.106264   -3.957536   -2.009246
     94          1           0        2.024785   -5.088629    0.255648
     95          1           0        3.581490   -4.357328   -0.073740
     96          1           0        1.301301   -3.154504    1.590022
     97          1           0        2.789115   -3.833465    2.235130
     98          1           0        3.749105    0.143469   -2.556993
     99          1           0        5.206289   -0.277852   -1.727355
    100          1           0        3.626447   -2.129888   -3.010414
    101          1           0        4.402438   -2.606590   -1.480624
    102          1           0        4.950945   -2.769062    0.467423
    103          1           0        4.894859   -2.597205    2.183044
    104          1           0        5.753858   -0.562865    2.214278
    105          1           0        9.221231   -0.656230   -0.042759
    106          1           0        9.220854    1.111863    0.120412
    107          1           0        8.349370    0.372926   -1.237669
    108          1           0        6.151894    1.889100    2.268316
    109          1           0        6.005675    3.337564    1.281071
    110          1           0        4.698632    2.889183    2.403740
 ---------------------------------------------------------------------
 Rotational constants (GHZ):           0.0963453           0.0333026           0.0299196
 Standard basis: STO-3G (5D, 7F)
 There are   326 symmetry adapted cartesian basis functions of A   symmetry.
 There are   326 symmetry adapted basis functions of A   symmetry.
   326 basis functions,   978 primitive gaussians,   326 cartesian basis functions
   197 alpha electrons      197 beta electrons
       nuclear repulsion energy      8152.2181716909 Hartrees.
 NAtoms=  110 NActive=  110 NUniq=  110 SFac= 1.00D+00 NAtFMM=   60 NAOKFM=T Big=T
 Integral buffers will be    131072 words long.
 Raffenetti 1 integral format.
 Two-electron integral symmetry is turned on.
 One-electron integrals computed using PRISM.
 NBasis=   326 RedAO= T EigKep=  1.72D-01  NBF=   326
 NBsUse=   326 1.00D-06 EigRej= -1.00D+00 NBFU=   326
 ExpMin= 1.69D-01 ExpMax= 1.31D+02 ExpMxC= 1.31D+02 IAcc=3 IRadAn=         5 AccDes= 0.00D+00
 Harris functional with IExCor=  205 and IRadAn=       5 diagonalized for initial guess.
 HarFok:  IExCor=  205 AccDes= 0.00D+00 IRadAn=         5 IDoV= 1 UseB2=F ITyADJ=14
 ICtDFT=  3500011 ScaDFX=  1.000000  1.000000  1.000000  1.000000
 FoFCou: FMM=F IPFlag=           0 FMFlag=      100000 FMFlg1=        2001
         NFxFlg=           0 DoJE=T BraDBF=F KetDBF=T FulRan=T
         wScrn=  0.000000 ICntrl=       500 IOpCl=  0 I1Cent=   200000004 NGrid=           0
         NMat0=    1 NMatS0=      1 NMatT0=    0 NMatD0=    1 NMtDS0=    0 NMtDT0=    0
 Petite list used in FoFCou.
 Requested convergence on RMS density matrix=1.00D-08 within 128 cycles.
 Requested convergence on MAX density matrix=1.00D-06.
 Requested convergence on             energy=1.00D-06.
 No special actions if energy rises.
 Integral accuracy reduced to 1.0D-05 until final iterations.
 Initial convergence to 1.0D-05 achieved.  Increase integral accuracy.
 SCF Done:  E(RHF) =  -2300.21956063     A.U. after   16 cycles
            NFock= 16  Conv=0.36D-08     -V/T= 2.0092
 Range of M.O.s used for correlation:     1   326
 NBasis=   326 NAE=   197 NBE=   197 NFC=     0 NFV=     0
 NROrb=    326 NOA=   197 NOB=   197 NVA=   129 NVB=   129
          Differentiating once with respect to magnetic field using GIAOs.
          Electric field/nuclear overlap derivatives assumed to be zero.
 FoFCou: FMM=F IPFlag=           0 FMFlag=      100000 FMFlg1=        2001
         NFxFlg=           0 DoJE=F BraDBF=F KetDBF=T FulRan=T
         wScrn=  0.000000 ICntrl=      6100 IOpCl=  0 I1Cent=           7 NGrid=         110
         NMat0=    1 NMatS0=      1 NMatT0=    0 NMatD0=    1 NMtDS0=    0 NMtDT0=    0
 Symmetry not used in FoFCou.
 FoFJK:  IHMeth= 1 ICntrl=    6127 DoSepK=F KAlg= 0 I1Cent=           0 FoldK=F
 IRaf=         1 NMat=       1 IRICut=       1 DoRegI=T DoRafI=F ISym2E= 0 IDoP0=0 IntGTp=1.
          There are     3 degrees of freedom in the 1st order CPHF.  IDoFFX=0 NUNeed=     3.
      3 vectors produced by pass  0 Test12= 8.47D-13 3.33D-08 XBig12= 1.84D+02 2.24D+00.
 AX will form     3 AO Fock derivatives at one time.
      3 vectors produced by pass  1 Test12= 8.47D-13 3.33D-08 XBig12= 8.32D-01 2.88D-01.
      3 vectors produced by pass  2 Test12= 8.47D-13 3.33D-08 XBig12= 2.06D-02 3.60D-02.
      3 vectors produced by pass  3 Test12= 8.47D-13 3.33D-08 XBig12= 4.87D-04 6.89D-03.
      3 vectors produced by pass  4 Test12= 8.47D-13 3.33D-08 XBig12= 1.72D-05 9.35D-04.
      3 vectors produced by pass  5 Test12= 8.47D-13 3.33D-08 XBig12= 3.04D-07 9.43D-05.
      3 vectors produced by pass  6 Test12= 8.47D-13 3.33D-08 XBig12= 8.46D-09 2.42D-05.
      3 vectors produced by pass  7 Test12= 8.47D-13 3.33D-08 XBig12= 3.47D-10 3.48D-06.
      3 vectors produced by pass  8 Test12= 8.47D-13 3.33D-08 XBig12= 7.08D-12 2.73D-07.
      1 vectors produced by pass  9 Test12= 8.47D-13 3.33D-08 XBig12= 1.20D-13 5.01D-08.
 InvSVY:  IOpt=1 It=  1 EMax= 3.55D-15
 Solved reduced A of dimension    28 with     3 vectors.
 Calculating GIAO nuclear magnetic shielding tensors.
 SCF GIAO Magnetic shielding tensor (ppm):
      1  C    Isotropic =   125.7764   Anisotropy =   148.7156
   XX=   151.5870   YX=     0.2304   ZX=    72.5101
   XY=     0.8273   YY=    85.4068   ZY=   -66.6882
   XZ=    58.3432   YZ=   -55.1990   ZZ=   140.3355
   Eigenvalues:    32.8817   119.5275   224.9202
      2  C    Isotropic =   119.9705   Anisotropy =   158.1387
   XX=   107.9569   YX=   -42.0611   ZX=    85.5597
   XY=   -36.5327   YY=   108.3546   ZY=   -28.8850
   XZ=    74.2247   YZ=   -24.4481   ZZ=   143.5999
   Eigenvalues:    40.4067    94.1085   225.3963
      3  C    Isotropic =   119.6799   Anisotropy =   153.2224
   XX=   133.5174   YX=   -62.8523   ZX=    50.6577
   XY=   -56.5815   YY=    62.1408   ZY=   -31.8856
   XZ=    38.6693   YZ=   -38.5242   ZZ=   163.3814
   Eigenvalues:    27.6100   109.6014   221.8281
      4  C    Isotropic =   134.2700   Anisotropy =   142.7060
   XX=   161.0069   YX=    -5.7762   ZX=    63.0721
   XY=   -12.8785   YY=   101.5249   ZY=   -52.7476
   XZ=    61.8760   YZ=   -57.6524   ZZ=   140.2782
   Eigenvalues:    52.6379   120.7648   229.4073
      5  C    Isotropic =   109.0519   Anisotropy =   128.8246
   XX=   109.9350   YX=   -22.4656   ZX=    67.3300
   XY=   -26.7241   YY=    96.9884   ZY=   -21.8240
   XZ=    77.8863   YZ=    -4.0309   ZZ=   120.2323
   Eigenvalues:    40.6604    91.5603   194.9350
      6  C    Isotropic =   117.8173   Anisotropy =   142.4224
   XX=   145.1847   YX=   -36.6738   ZX=    54.1422
   XY=   -42.0850   YY=    66.4711   ZY=   -22.4888
   XZ=    53.0451   YZ=   -33.5686   ZZ=   141.7962
   Eigenvalues:    49.6685    91.0179   212.7656
      7  N    Isotropic =   274.6406   Anisotropy =    84.8064
   XX=   308.2261   YX=    26.2760   ZX=   -13.6465
   XY=    45.7123   YY=   261.7754   ZY=   -11.8956
   XZ=   -14.7183   YZ=    -3.2005   ZZ=   253.9203
   Eigenvalues:   242.1611   250.5825   331.1782
      8  C    Isotropic =   198.4507   Anisotropy =    12.3147
   XX=   195.7802   YX=    -6.5768   ZX=    -3.7087
   XY=    -5.2989   YY=   198.7637   ZY=     8.3698
   XZ=     0.2329   YZ=    -0.0770   ZZ=   200.8082
   Eigenvalues:   190.9822   197.7094   206.6605
      9  C    Isotropic =   179.4616   Anisotropy =    41.8205
   XX=   172.8237   YX=    13.5114   ZX=   -16.5208
   XY=     2.7304   YY=   189.4088   ZY=    18.3293
   XZ=    -3.3859   YZ=    28.9570   ZZ=   176.1522
   Eigenvalues:   150.7562   180.2866   207.3419
     10  C    Isotropic =   189.1769   Anisotropy =    33.9180
   XX=   187.7270   YX=   -16.7628   ZX=     1.7628
   XY=   -18.6944   YY=   198.6511   ZY=     0.5475
   XZ=     7.6785   YZ=     3.4117   ZZ=   181.1527
   Eigenvalues:   171.9418   183.8000   211.7889
     11  C    Isotropic =   212.7253   Anisotropy =    21.2262
   XX=   212.1157   YX=    -1.7865   ZX=    10.4524
   XY=    -5.1276   YY=   209.5243   ZY=     0.7253
   XZ=    11.5796   YZ=    -7.4057   ZZ=   216.5358
   Eigenvalues:   203.0336   208.2661   226.8761
     12  C    Isotropic =   214.4563   Anisotropy =    19.4473
   XX=   207.6649   YX=    -7.8475   ZX=     2.9914
   XY=    -7.4032   YY=   224.3835   ZY=    -1.1000
   XZ=     4.1038   YZ=     1.4210   ZZ=   211.3204
   Eigenvalues:   203.2894   212.6583   227.4211
     13  C    Isotropic =   210.7823   Anisotropy =     8.0728
   XX=   209.6325   YX=     3.1732   ZX=     1.1035
   XY=     1.5437   YY=   209.6141   ZY=     3.5837
   XZ=     3.5621   YZ=     1.8625   ZZ=   213.1001
   Eigenvalues:   207.2396   208.9431   216.1641
     14  N    Isotropic =   298.5144   Anisotropy =    58.3881
   XX=   301.4312   YX=   -25.3725   ZX=    32.6297
   XY=   -27.9338   YY=   317.1331   ZY=    24.8678
   XZ=    31.5981   YZ=    14.0923   ZZ=   276.9790
   Eigenvalues:   241.7122   316.3913   337.4398
     15  C    Isotropic =   201.8551   Anisotropy =    39.2941
   XX=   192.6342   YX=     4.6476   ZX=     1.5549
   XY=     3.0856   YY=   208.2039   ZY=    21.3414
   XZ=     1.6124   YZ=    20.8190   ZZ=   204.7272
   Eigenvalues:   185.0221   192.4921   228.0512
     16  C    Isotropic =   219.1936   Anisotropy =    11.1158
   XX=   224.5125   YX=     0.4891   ZX=     4.8600
   XY=    -0.7628   YY=   221.3176   ZY=     0.8797
   XZ=     5.7279   YZ=     5.3537   ZZ=   211.7506
   Eigenvalues:   209.1109   221.8657   226.6041
     17  C    Isotropic =   213.8771   Anisotropy =    22.8087
   XX=   206.6307   YX=    -0.2797   ZX=     5.1578
   XY=    -2.6620   YY=   220.6337   ZY=    11.8316
   XZ=     2.4494   YZ=    10.3498   ZZ=   214.3669
   Eigenvalues:   202.3470   210.2014   229.0830
     18  C    Isotropic =   208.3606   Anisotropy =    32.2228
   XX=   206.9268   YX=   -18.2892   ZX=    11.9434
   XY=   -12.6911   YY=   216.2710   ZY=     0.9089
   XZ=    17.0336   YZ=     3.4094   ZZ=   201.8839
   Eigenvalues:   184.9032   210.3361   229.8424
     19  C    Isotropic =   199.7909   Anisotropy =    42.0637
   XX=   211.9962   YX=    -3.5026   ZX=    22.4734
   XY=     6.1413   YY=   191.8744   ZY=    12.5023
   XZ=    18.8879   YZ=    11.6870   ZZ=   195.5022
   Eigenvalues:   175.7226   195.8168   227.8334
     20  C    Isotropic =   212.6798   Anisotropy =    20.9286
   XX=   206.5328   YX=     8.8560   ZX=    -4.8971
   XY=     6.9491   YY=   206.0738   ZY=     2.3827
   XZ=    -4.8652   YZ=     2.4460   ZZ=   225.4327
   Eigenvalues:   197.4493   213.9580   226.6322
     21  C    Isotropic =   207.7015   Anisotropy =    13.8424
   XX=   205.9688   YX=     4.1541   ZX=     0.8342
   XY=     3.2710   YY=   206.7603   ZY=   -10.2912
   XZ=    -0.6112   YZ=    -5.0685   ZZ=   210.3755
   Eigenvalues:   199.2894   206.8854   216.9298
     22  C    Isotropic =    98.9654   Anisotropy =   100.1407
   XX=   150.3925   YX=    31.0307   ZX=   -29.7588
   XY=    35.9422   YY=    44.5867   ZY=   101.1271
   XZ=   -25.5768   YZ=    71.3565   ZZ=   101.9168
   Eigenvalues:   -28.1540   159.3242   165.7258
     23  O    Isotropic =  -142.2816   Anisotropy =   893.6269
   XX=   412.1073   YX=   108.0550   ZX=  -127.2014
   XY=   109.3809   YY=  -399.7588   ZY=  -152.6290
   XZ=  -138.0466   YZ=  -180.2268   ZZ=  -439.1935
   Eigenvalues:  -587.8610  -292.4536   453.4696
     24  O    Isotropic =   284.9997   Anisotropy =   137.0166
   XX=   352.2562   YX=    10.6599   ZX=   -28.0127
   XY=   -12.8717   YY=   376.2024   ZY=   -67.4471
   XZ=   -60.3031   YZ=    71.2323   ZZ=   126.5406
   Eigenvalues:   118.1987   360.4564   376.3441
     25  C    Isotropic =   197.4555   Anisotropy =    56.8011
   XX=   182.4798   YX=    -4.0980   ZX=    10.8721
   XY=    -4.4068   YY=   185.8961   ZY=   -20.4085
   XZ=    10.3440   YZ=   -20.3913   ZZ=   223.9906
   Eigenvalues:   176.9996   180.0440   235.3229
     26  C    Isotropic =   210.3717   Anisotropy =    42.6120
   XX=   211.9379   YX=   -18.1699   ZX=   -11.8932
   XY=   -18.0708   YY=   212.7418   ZY=    11.7356
   XZ=   -13.0132   YZ=     9.7524   ZZ=   206.4354
   Eigenvalues:   193.8471   198.4883   238.7797
     27  C    Isotropic =   206.5324   Anisotropy =    15.1173
   XX=   216.5252   YX=    -0.1940   ZX=    -1.7469
   XY=    -0.0726   YY=   201.7719   ZY=    -5.5432
   XZ=    -0.4966   YZ=    -3.7956   ZZ=   201.3001
   Eigenvalues:   196.8190   206.1676   216.6106
     28  C    Isotropic =   120.1478   Anisotropy =   157.2072
   XX=    91.6432   YX=    19.3561   ZX=   -75.9708
   XY=    16.1779   YY=    91.2442   ZY=     0.6853
   XZ=   -81.6142   YZ=    -0.5191   ZZ=   177.5560
   Eigenvalues:    40.2190    95.2719   224.9526
     29  C    Isotropic =   121.9416   Anisotropy =   156.7739
   XX=   111.3932   YX=   -22.5661   ZX=   -71.0259
   XY=   -31.3721   YY=    69.5884   ZY=   -28.3831
   XZ=   -65.3404   YZ=   -30.5872   ZZ=   184.8432
   Eigenvalues:    31.5086   107.8587   226.4576
     30  C    Isotropic =   119.3760   Anisotropy =   150.0555
   XX=   131.8009   YX=    20.8341   ZX=   -49.7236
   XY=    20.8890   YY=    33.3052   ZY=     3.0107
   XZ=   -45.6715   YZ=     2.1807   ZZ=   193.0219
   Eigenvalues:    28.0709   110.6440   219.4130
     31  C    Isotropic =   134.3694   Anisotropy =   141.2871
   XX=   126.1457   YX=   -26.8698   ZX=   -61.2672
   XY=   -23.5171   YY=    86.4937   ZY=   -18.3831
   XZ=   -62.8679   YZ=   -28.2464   ZZ=   190.4689
   Eigenvalues:    53.6569   120.8906   228.5608
     32  C    Isotropic =   109.3283   Anisotropy =   126.0330
   XX=    88.7912   YX=    18.7864   ZX=   -66.9557
   XY=     6.1517   YY=    90.4279   ZY=     1.1397
   XZ=   -68.7854   YZ=     0.3982   ZZ=   148.7657
   Eigenvalues:    42.1208    92.5137   193.3503
     33  C    Isotropic =   119.9164   Anisotropy =   134.8983
   XX=   122.5640   YX=     1.6702   ZX=   -50.7984
   XY=    10.0333   YY=    51.8259   ZY=     2.1241
   XZ=   -41.6674   YZ=     3.4253   ZZ=   185.3592
   Eigenvalues:    50.9374    98.9632   209.8486
     34  N    Isotropic =   274.7229   Anisotropy =    81.0251
   XX=   272.1236   YX=   -13.7839   ZX=    28.7172
   XY=   -26.9798   YY=   276.4518   ZY=   -41.3026
   XZ=    19.2688   YZ=   -29.3292   ZZ=   275.5933
   Eigenvalues:   240.2856   255.1434   328.7396
     35  C    Isotropic =   195.7664   Anisotropy =    15.4228
   XX=   201.1877   YX=     3.4109   ZX=     0.0897
   XY=     8.4006   YY=   195.4451   ZY=     3.6350
   XZ=     2.6724   YZ=     7.3443   ZZ=   190.6663
   Eigenvalues:   186.7029   194.5479   206.0483
     36  C    Isotropic =   181.4633   Anisotropy =    44.4940
   XX=   176.3745   YX=    20.9222   ZX=     6.4783
   XY=    10.7934   YY=   203.8687   ZY=    -0.4448
   XZ=    18.6193   YZ=    -9.1177   ZZ=   164.1466
   Eigenvalues:   153.0019   180.2620   211.1260
     37  C    Isotropic =   179.9982   Anisotropy =    44.2374
   XX=   167.4770   YX=     2.3234   ZX=     2.1470
   XY=     5.2616   YY=   180.2288   ZY=    24.9975
   XZ=    -5.5277   YZ=    19.8256   ZZ=   192.2890
   Eigenvalues:   160.6536   169.8513   209.4899
     38  C    Isotropic =   213.9632   Anisotropy =    18.7471
   XX=   213.2329   YX=    -0.9404   ZX=   -11.5189
   XY=     5.4366   YY=   209.7494   ZY=     0.0607
   XZ=    -8.3313   YZ=     0.6647   ZZ=   218.9074
   Eigenvalues:   204.9022   210.5262   226.4613
     39  C    Isotropic =   212.7599   Anisotropy =    20.3835
   XX=   207.3535   YX=     0.0762   ZX=    -2.6337
   XY=    -1.1341   YY=   215.6738   ZY=    11.9633
   XZ=    -3.1062   YZ=     9.2002   ZZ=   215.2523
   Eigenvalues:   203.9754   207.9553   226.3489
     40  C    Isotropic =   212.2356   Anisotropy =     8.6147
   XX=   213.2283   YX=     3.5082   ZX=    -1.4744
   XY=     2.5145   YY=   213.2148   ZY=    -3.1329
   XZ=    -0.2493   YZ=    -5.0650   ZZ=   210.2637
   Eigenvalues:   207.1750   211.5530   217.9787
     41  N    Isotropic =   235.0268   Anisotropy =    25.8683
   XX=   243.9406   YX=     4.4431   ZX=     6.9708
   XY=   -16.1189   YY=   223.0025   ZY=     0.5533
   XZ=    14.7265   YZ=    13.6916   ZZ=   238.1373
   Eigenvalues:   216.5904   236.2175   252.2723
     42  C    Isotropic =   195.0168   Anisotropy =    47.8546
   XX=   191.8817   YX=    13.5516   ZX=     4.3789
   XY=    15.9100   YY=   219.8295   ZY=   -13.8274
   XZ=     3.0026   YZ=    -3.0924   ZZ=   173.3392
   Eigenvalues:   169.7624   188.3682   226.9199
     43  C    Isotropic =   223.0457   Anisotropy =     9.5566
   XX=   217.6744   YX=     0.8310   ZX=     4.6289
   XY=     0.1113   YY=   224.4196   ZY=     2.4522
   XZ=     3.8276   YZ=     1.3254   ZZ=   227.0430
   Eigenvalues:   216.0413   223.6790   229.4167
     44  C    Isotropic =   215.8490   Anisotropy =    18.1434
   XX=   215.0777   YX=     5.4886   ZX=     2.2676
   XY=     9.3807   YY=   223.2378   ZY=     3.8174
   XZ=    -0.4909   YZ=     0.6932   ZZ=   209.2314
   Eigenvalues:   208.8460   210.7564   227.9446
     45  C    Isotropic =   211.2427   Anisotropy =    37.2166
   XX=   196.3092   YX=    -7.6137   ZX=   -14.6414
   XY=    -0.6685   YY=   218.6746   ZY=    12.3656
   XZ=   -12.4429   YZ=    14.1486   ZZ=   218.7445
   Eigenvalues:   189.7897   207.8848   236.0538
     46  C    Isotropic =   191.6795   Anisotropy =    54.0770
   XX=   212.8119   YX=     9.6874   ZX=   -27.2741
   XY=    17.4905   YY=   178.9789   ZY=    14.1209
   XZ=   -22.2071   YZ=     8.5282   ZZ=   183.2478
   Eigenvalues:   156.6328   190.6749   227.7308
     47  C    Isotropic =   212.5903   Anisotropy =    22.8496
   XX=   226.5061   YX=     3.8133   ZX=    -0.9047
   XY=     4.6088   YY=   211.2152   ZY=    -4.6971
   XZ=    -1.3909   YZ=    -6.3179   ZZ=   200.0494
   Eigenvalues:   197.7796   212.1679   227.8233
     48  C    Isotropic =   209.5335   Anisotropy =    10.7459
   XX=   214.2352   YX=    -0.3006   ZX=    -3.5454
   XY=    -7.8838   YY=   207.9378   ZY=    -3.2407
   XZ=    -5.2424   YZ=    -7.0027   ZZ=   206.4274
   Eigenvalues:   199.5528   212.3502   216.6974
     49  C    Isotropic =    96.1130   Anisotropy =    98.8979
   XX=    15.0470   YX=   -66.1606   ZX=    37.1245
   XY=   -79.9343   YY=   125.7010   ZY=    21.6426
   XZ=    24.0064   YZ=     9.9384   ZZ=   147.5912
   Eigenvalues:   -28.0002   154.2943   162.0450
     50  O    Isotropic =  -133.5905   Anisotropy =   886.4700
   XX=  -150.8747   YX=  -161.5033   ZX=   250.4880
   XY=  -177.8913   YY=  -194.3515   ZY=  -438.1784
   XZ=   228.3741   YZ=  -434.3148   ZZ=   -55.5451
   Eigenvalues:  -568.8422  -289.3187   457.3895
     51  O    Isotropic =   283.3476   Anisotropy =   139.1149
   XX=   248.9961   YX=    -3.2689   ZX=    80.2544
   XY=   105.6188   YY=   352.3482   ZY=   -76.7226
   XZ=   152.3057   YZ=    -0.6825   ZZ=   248.6986
   Eigenvalues:   115.4949   358.4571   376.0909
     52  C    Isotropic =   197.1941   Anisotropy =    58.1100
   XX=   220.6246   YX=     3.6901   ZX=   -25.1414
   XY=     3.6212   YY=   177.6388   ZY=    -2.9648
   XZ=   -25.1654   YZ=    -2.2252   ZZ=   193.3188
   Eigenvalues:   177.1854   178.4628   235.9341
     53  C    Isotropic =   209.9233   Anisotropy =    41.6444
   XX=   208.8128   YX=     9.1935   ZX=    12.9582
   XY=    11.4220   YY=   207.0007   ZY=    17.4312
   XZ=    12.3344   YZ=    17.8679   ZZ=   213.9565
   Eigenvalues:   192.4891   199.5946   237.6863
     54  O    Isotropic =     2.3037   Anisotropy =   520.6511
   XX=    89.0513   YX=  -137.6023   ZX=   201.3596
   XY=  -157.9897   YY=  -119.4276   ZY=  -130.8026
   XZ=   208.5976   YZ=  -118.2337   ZZ=    37.2873
   Eigenvalues:  -199.3394  -143.1540   349.4044
     55  H    Isotropic =    25.5783   Anisotropy =    12.0752
   XX=    29.6621   YX=     4.6612   ZX=    -2.3163
   XY=     4.2769   YY=    26.6113   ZY=    -1.8703
   XZ=    -3.0815   YZ=    -1.5247   ZZ=    20.4615
   Eigenvalues:    19.6830    23.4234    33.6284
     56  H    Isotropic =    25.9318   Anisotropy =     6.9901
   XX=    27.1574   YX=    -0.9914   ZX=    -3.5461
   XY=    -0.0055   YY=    27.3268   ZY=     1.8041
   XZ=    -4.6618   YZ=     2.5141   ZZ=    23.3112
   Eigenvalues:    20.3425    26.8611    30.5919
     57  H    Isotropic =    26.7357   Anisotropy =     7.5569
   XX=    27.1688   YX=     3.2916   ZX=    -2.8687
   XY=     3.0981   YY=    29.5532   ZY=     2.2412
   XZ=    -3.9045   YZ=     2.1636   ZZ=    23.4851
   Eigenvalues:    20.1134    28.3202    31.7736
     58  H    Isotropic =    31.8950   Anisotropy =     7.1601
   XX=    31.5376   YX=     2.9529   ZX=    -2.8162
   XY=     2.0221   YY=    30.1562   ZY=    -1.8114
   XZ=    -3.1314   YZ=     0.1963   ZZ=    33.9913
   Eigenvalues:    27.9697    31.0470    36.6684
     59  H    Isotropic =    32.9295   Anisotropy =     8.6641
   XX=    31.1466   YX=     3.6757   ZX=     1.1466
   XY=     0.4899   YY=    36.6726   ZY=    -4.2759
   XZ=     3.6625   YZ=    -3.4278   ZZ=    30.9692
   Eigenvalues:    26.8087    33.2741    38.7055
     60  H    Isotropic =    32.1230   Anisotropy =    13.9888
   XX=    37.2110   YX=    -6.0564   ZX=    -0.2935
   XY=    -6.8539   YY=    31.0159   ZY=     3.1564
   XZ=     1.1274   YZ=     3.7581   ZZ=    28.1421
   Eigenvalues:    24.2903    30.6298    41.4489
     61  H    Isotropic =    32.2520   Anisotropy =    15.9680
   XX=    40.8732   YX=    -0.9785   ZX=     5.3897
   XY=    -1.4823   YY=    28.0523   ZY=     1.0549
   XZ=     5.5376   YZ=     1.3460   ZZ=    27.8303
   Eigenvalues:    25.0397    28.8188    42.8973
     62  H    Isotropic =    32.6086   Anisotropy =    12.8405
   XX=    27.5568   YX=     0.2662   ZX=     0.8971
   XY=    -1.1554   YY=    30.5908   ZY=    -4.3497
   XZ=     1.5239   YZ=    -3.2156   ZZ=    39.6783
   Eigenvalues:    27.4346    29.2223    41.1689
     63  H    Isotropic =    32.1003   Anisotropy =    10.7305
   XX=    33.4440   YX=     0.5129   ZX=    -4.7201
   XY=     0.3951   YY=    27.8006   ZY=     2.4307
   XZ=    -4.7842   YZ=     2.0799   ZZ=    35.0563
   Eigenvalues:    26.5212    30.5257    39.2540
     64  H    Isotropic =    31.5625   Anisotropy =    13.6052
   XX=    32.6384   YX=    -5.4196   ZX=     2.1760
   XY=    -5.3224   YY=    37.0238   ZY=     1.2129
   XZ=     2.4345   YZ=     2.0177   ZZ=    25.0254
   Eigenvalues:    23.5736    30.4813    40.6327
     65  H    Isotropic =    32.3106   Anisotropy =    17.3483
   XX=    28.2609   YX=     0.6410   ZX=     1.9191
   XY=     0.7057   YY=    34.7101   ZY=     8.9406
   XZ=     2.1547   YZ=     9.6632   ZZ=    33.9610
   Eigenvalues:    24.7256    28.3302    43.8762
     66  H    Isotropic =    31.7845   Anisotropy =    12.2145
   XX=    29.4578   YX=     3.9468   ZX=    -2.3617
   XY=     4.0154   YY=    36.6234   ZY=    -3.6335
   XZ=    -2.1291   YZ=    -3.1943   ZZ=    29.2724
   Eigenvalues:    27.0930    28.3331    39.9275
     67  H    Isotropic =    32.4571   Anisotropy =    12.5849
   XX=    27.0848   YX=    -0.6557   ZX=     1.6908
   XY=    -1.1243   YY=    29.7229   ZY=    -0.6713
   XZ=     2.0558   YZ=    -0.2088   ZZ=    40.5636
   Eigenvalues:    26.6105    29.9138    40.8471
     68  H    Isotropic =    32.2065   Anisotropy =    15.4537
   XX=    39.1781   YX=     4.2526   ZX=     3.9417
   XY=     4.1283   YY=    29.8889   ZY=     3.6583
   XZ=     3.9165   YZ=     3.8738   ZZ=    27.5525
   Eigenvalues:    24.7332    29.3773    42.5090
     69  H    Isotropic =    32.1352   Anisotropy =    12.8486
   XX=    32.6859   YX=    -1.6344   ZX=    -4.5526
   XY=     0.9795   YY=    27.5749   ZY=    -5.2216
   XZ=    -4.3262   YZ=    -5.6293   ZZ=    36.1448
   Eigenvalues:    24.2732    31.4315    40.7009
     70  H    Isotropic =    33.1816   Anisotropy =    11.5682
   XX=    38.1114   YX=     0.0381   ZX=     5.8793
   XY=     2.5826   YY=    31.5549   ZY=     2.4889
   XZ=     4.4683   YZ=    -0.3876   ZZ=    29.8784
   Eigenvalues:    27.3478    31.3033    40.8937
     71  H    Isotropic =    31.3022   Anisotropy =    17.4412
   XX=    42.1866   YX=    -0.0590   ZX=    -4.0129
   XY=     1.0360   YY=    27.6565   ZY=     0.2578
   XZ=    -3.3742   YZ=    -0.8960   ZZ=    24.0634
   Eigenvalues:    23.3284    27.6485    42.9296
     72  H    Isotropic =    31.8778   Anisotropy =    15.6693
   XX=    36.0870   YX=    -6.9857   ZX=     4.2243
   XY=    -5.3014   YY=    32.1751   ZY=    -2.6824
   XZ=     3.3098   YZ=    -4.3110   ZZ=    27.3713
   Eigenvalues:    25.4819    27.8274    42.3240
     73  H    Isotropic =    31.9505   Anisotropy =    15.5153
   XX=    39.9509   YX=     6.0490   ZX=    -0.7358
   XY=     5.5180   YY=    27.9381   ZY=     1.3338
   XZ=    -1.3069   YZ=     1.5846   ZZ=    27.9626
   Eigenvalues:    24.6851    28.8724    42.2941
     74  H    Isotropic =    30.1688   Anisotropy =     8.6158
   XX=    25.3900   YX=    -0.5341   ZX=    -1.7269
   XY=    -0.6213   YY=    34.1943   ZY=    -2.8820
   XZ=    -1.5997   YZ=    -2.9483   ZZ=    30.9221
   Eigenvalues:    24.7165    29.8773    35.9127
     75  H    Isotropic =    31.1337   Anisotropy =    13.1043
   XX=    37.3012   YX=    -3.3257   ZX=    -3.8206
   XY=    -1.9448   YY=    27.8951   ZY=     1.8665
   XZ=    -4.8337   YZ=     1.9937   ZZ=    28.2047
   Eigenvalues:    25.9255    27.6056    39.8699
     76  H    Isotropic =    30.5315   Anisotropy =    12.5092
   XX=    30.0172   YX=     0.5318   ZX=    -5.5895
   XY=     0.0210   YY=    26.8317   ZY=    -1.7034
   XZ=    -5.8490   YZ=    -2.4927   ZZ=    34.7458
   Eigenvalues:    25.4212    27.3024    38.8710
     77  H    Isotropic =    30.5307   Anisotropy =    11.0371
   XX=    26.4064   YX=    -1.6991   ZX=    -0.3668
   XY=    -1.2827   YY=    36.3546   ZY=    -3.0159
   XZ=    -0.5434   YZ=    -4.0646   ZZ=    28.8312
   Eigenvalues:    25.7268    27.9766    37.8888
     78  H    Isotropic =    30.6104   Anisotropy =     7.5161
   XX=    32.7910   YX=     1.1336   ZX=     3.4504
   XY=     2.3449   YY=    27.0174   ZY=    -1.0853
   XZ=     2.8988   YZ=    -1.7563   ZZ=    32.0227
   Eigenvalues:    25.6310    30.5790    35.6211
     79  H    Isotropic =    31.9237   Anisotropy =    12.1390
   XX=    31.1602   YX=    -5.6038   ZX=     0.2716
   XY=    -6.1619   YY=    35.9210   ZY=    -0.6246
   XZ=     1.7210   YZ=    -0.9521   ZZ=    28.6898
   Eigenvalues:    27.0941    28.6605    40.0163
     80  H    Isotropic =    30.8044   Anisotropy =    14.6096
   XX=    27.2069   YX=     1.2404   ZX=    -0.8782
   XY=     0.9210   YY=    31.8472   ZY=     7.9793
   XZ=    -0.6660   YZ=     7.8267   ZZ=    33.3592
   Eigenvalues:    24.1033    27.7659    40.5441
     81  H    Isotropic =    30.9937   Anisotropy =    11.7950
   XX=    33.2977   YX=     0.6158   ZX=    -7.1834
   XY=     0.2824   YY=    29.9661   ZY=     2.0806
   XZ=    -6.9010   YZ=     1.8432   ZZ=    29.7173
   Eigenvalues:    23.7056    30.4185    38.8570
     82  H    Isotropic =    29.9578   Anisotropy =    12.4207
   XX=    27.4652   YX=     0.3125   ZX=     0.1250
   XY=     1.0697   YY=    37.1383   ZY=    -3.2470
   XZ=    -0.5805   YZ=    -4.1224   ZZ=    25.2700
   Eigenvalues:    24.2187    27.4164    38.2383
     83  H    Isotropic =    29.9339   Anisotropy =     8.0032
   XX=    26.4524   YX=     0.7606   ZX=     0.4779
   XY=     1.0887   YY=    28.6791   ZY=     1.2048
   XZ=     1.4248   YZ=     2.1863   ZZ=    34.6704
   Eigenvalues:    26.1045    28.4279    35.2694
     84  H    Isotropic =    24.7905   Anisotropy =    14.3361
   XX=    29.2724   YX=    -5.2459   ZX=     1.7835
   XY=    -4.8011   YY=    27.5405   ZY=    -1.8287
   XZ=     4.2746   YZ=    -2.6623   ZZ=    17.5584
   Eigenvalues:    16.7069    23.3166    34.3478
     85  H    Isotropic =    25.7105   Anisotropy =     6.5498
   XX=    28.1332   YX=     1.8465   ZX=     2.8389
   XY=     0.9032   YY=    27.3577   ZY=     0.1080
   XZ=     3.3950   YZ=     0.3845   ZZ=    21.6406
   Eigenvalues:    20.3745    26.6800    30.0771
     86  H    Isotropic =    26.6799   Anisotropy =     7.8808
   XX=    26.8788   YX=    -0.6893   ZX=     3.6498
   XY=    -0.7816   YY=    31.3160   ZY=    -1.2963
   XZ=     3.5916   YZ=    -1.5638   ZZ=    21.8451
   Eigenvalues:    19.8760    28.2300    31.9338
     87  H    Isotropic =    31.0685   Anisotropy =    13.2966
   XX=    39.1682   YX=    -2.0342   ZX=     1.4528
   XY=    -3.7300   YY=    28.4985   ZY=     0.4427
   XZ=    -0.0622   YZ=    -0.8101   ZZ=    25.5387
   Eigenvalues:    25.5028    27.7698    39.9329
     88  H    Isotropic =    32.3267   Anisotropy =    13.4768
   XX=    28.3084   YX=     4.6156   ZX=     2.0635
   XY=     3.7957   YY=    30.2276   ZY=     3.9038
   XZ=     3.8647   YZ=     3.4108   ZZ=    38.4442
   Eigenvalues:    24.9541    30.7148    41.3113
     89  H    Isotropic =    33.2495   Anisotropy =     9.1229
   XX=    34.1694   YX=    -3.9918   ZX=    -3.7942
   XY=    -5.2015   YY=    34.8615   ZY=     0.9491
   XZ=    -0.7395   YZ=    -1.5986   ZZ=    30.7176
   Eigenvalues:    28.3220    32.0951    39.3314
     90  H    Isotropic =    32.4351   Anisotropy =    14.6999
   XX=    27.0329   YX=     0.3789   ZX=     1.5430
   XY=     0.5200   YY=    29.1665   ZY=    -3.3481
   XZ=     1.5251   YZ=    -3.8758   ZZ=    41.1059
   Eigenvalues:    26.4877    28.5825    42.2350
     91  H    Isotropic =    32.7792   Anisotropy =    13.8256
   XX=    40.1778   YX=    -0.3956   ZX=    -4.7751
   XY=    -0.9722   YY=    28.2420   ZY=     1.3391
   XZ=    -4.4376   YZ=    -0.0986   ZZ=    29.9179
   Eigenvalues:    27.8363    28.5050    41.9962
     92  H    Isotropic =    30.7812   Anisotropy =    15.3814
   XX=    40.6161   YX=     0.3737   ZX=     2.3776
   XY=     2.6529   YY=    27.7956   ZY=     0.3693
   XZ=     1.7888   YZ=    -0.9093   ZZ=    23.9318
   Eigenvalues:    23.6250    27.6831    41.0354
     93  H    Isotropic =    30.8483   Anisotropy =    12.9755
   XX=    26.0136   YX=     0.8523   ZX=     0.5556
   XY=     2.0755   YY=    33.0008   ZY=     6.7684
   XZ=     1.1080   YZ=     5.2995   ZZ=    33.5304
   Eigenvalues:    25.6728    27.3734    39.4986
     94  H    Isotropic =    32.3172   Anisotropy =    17.2956
   XX=    27.9750   YX=     4.9497   ZX=     0.0923
   XY=     4.9191   YY=    42.2144   ZY=    -1.3198
   XZ=     0.1895   YZ=    -1.3716   ZZ=    26.7622
   Eigenvalues:    26.0041    27.0999    43.8476
     95  H    Isotropic =    32.5642   Anisotropy =    11.6186
   XX=    36.5675   YX=    -4.7941   ZX=    -1.3359
   XY=    -4.1257   YY=    34.2343   ZY=     1.7668
   XZ=    -1.1941   YZ=     1.5058   ZZ=    26.8909
   Eigenvalues:    26.5298    30.8529    40.3099
     96  H    Isotropic =    32.6024   Anisotropy =    13.4206
   XX=    39.9726   YX=     1.4501   ZX=    -4.0478
   XY=     1.9492   YY=    29.2186   ZY=    -0.4202
   XZ=    -4.0722   YZ=    -1.0334   ZZ=    28.6161
   Eigenvalues:    27.2961    28.9616    41.5495
     97  H    Isotropic =    32.4807   Anisotropy =    14.5540
   XX=    27.3987   YX=    -0.4181   ZX=     2.9290
   XY=     0.2202   YY=    34.2086   ZY=    -6.6927
   XZ=     2.3191   YZ=    -6.9705   ZZ=    35.8348
   Eigenvalues:    25.9001    29.3586    42.1834
     98  H    Isotropic =    31.6485   Anisotropy =    10.8041
   XX=    26.3352   YX=    -2.6176   ZX=    -0.3055
   XY=    -1.7073   YY=    31.6258   ZY=    -5.2038
   XZ=     0.5350   YZ=    -1.9073   ZZ=    36.9845
   Eigenvalues:    25.4444    30.6498    38.8513
     99  H    Isotropic =    32.8562   Anisotropy =    12.2168
   XX=    40.3816   YX=     1.9827   ZX=    -2.3938
   XY=     1.4511   YY=    27.0195   ZY=    -0.1272
   XZ=    -1.7710   YZ=     1.4625   ZZ=    31.1674
   Eigenvalues:    26.6033    30.9645    41.0007
    100  H    Isotropic =    30.9464   Anisotropy =    14.6747
   XX=    26.8008   YX=     0.2217   ZX=    -4.2826
   XY=     0.3399   YY=    27.7514   ZY=     4.9549
   XZ=    -1.1859   YZ=     5.1001   ZZ=    38.2869
   Eigenvalues:    24.7563    27.3533    40.7295
    101  H    Isotropic =    31.4759   Anisotropy =     8.9751
   XX=    34.2945   YX=    -4.4303   ZX=    -1.4708
   XY=    -3.7266   YY=    31.4574   ZY=     0.4523
   XZ=    -0.9751   YZ=     1.3756   ZZ=    28.6757
   Eigenvalues:    28.4023    28.5661    37.4593
    102  H    Isotropic =    31.6443   Anisotropy =     9.6939
   XX=    32.8858   YX=    -3.3938   ZX=    -1.6384
   XY=    -1.8896   YY=    33.4811   ZY=     4.6082
   XZ=    -1.8207   YZ=     4.5039   ZZ=    28.5660
   Eigenvalues:    25.8441    30.9819    38.1069
    103  H    Isotropic =    32.2491   Anisotropy =    14.6826
   XX=    31.1136   YX=    -2.1259   ZX=     5.5238
   XY=    -1.4425   YY=    32.5639   ZY=    -6.6870
   XZ=     5.0408   YZ=    -6.9354   ZZ=    33.0698
   Eigenvalues:    24.7762    29.9336    42.0375
    104  H    Isotropic =    31.2280   Anisotropy =    12.7538
   XX=    32.5125   YX=     1.9463   ZX=     6.1529
   XY=     1.9283   YY=    27.1338   ZY=    -0.2860
   XZ=     6.2237   YZ=     1.2899   ZZ=    34.0377
   Eigenvalues:    25.8660    28.0876    39.7306
    105  H    Isotropic =    30.5682   Anisotropy =    11.7456
   XX=    35.8147   YX=    -4.1687   ZX=    -0.3893
   XY=    -4.8853   YY=    30.4183   ZY=    -0.3475
   XZ=    -0.6248   YZ=     0.1579   ZZ=    25.4716
   Eigenvalues:    25.4141    27.8919    38.3986
    106  H    Isotropic =    30.5065   Anisotropy =    12.2832
   XX=    34.6872   YX=     5.6722   ZX=     0.4082
   XY=     5.1731   YY=    31.1968   ZY=     1.5526
   XZ=    -0.2962   YZ=     1.2075   ZZ=    25.6356
   Eigenvalues:    25.0482    27.7760    38.6954
    107  H    Isotropic =    30.6269   Anisotropy =     7.8069
   XX=    31.1526   YX=     0.6237   ZX=    -1.4608
   XY=     0.9806   YY=    26.0800   ZY=    -1.4336
   XZ=    -2.3317   YZ=    -1.9109   ZZ=    34.6479
   Eigenvalues:    25.7268    30.3223    35.8314
    108  H    Isotropic =    30.9992   Anisotropy =    11.0309
   XX=    33.3054   YX=    -0.6951   ZX=     6.1270
   XY=    -0.3179   YY=    30.4110   ZY=     1.3032
   XZ=     7.3934   YZ=     0.8107   ZZ=    29.2811
   Eigenvalues:    24.0324    30.6119    38.3531
    109  H    Isotropic =    30.7600   Anisotropy =    14.8152
   XX=    31.6735   YX=     6.5935   ZX=     0.7491
   XY=     6.5319   YY=    35.8238   ZY=    -0.4584
   XZ=     1.6502   YZ=    -0.5892   ZZ=    24.7827
   Eigenvalues:    24.1720    27.4711    40.6368
    110  H    Isotropic =    31.9892   Anisotropy =    11.2074
   XX=    29.4278   YX=    -0.2426   ZX=    -2.2873
   XY=    -0.5037   YY=    32.5798   ZY=     6.0159
   XZ=     0.0067   YZ=     6.0458   ZZ=    33.9599
   Eigenvalues:    27.0962    29.4105    39.4608
 End of Minotr F.D. properties file   721 does not exist.
 End of Minotr F.D. properties file   722 does not exist.
 End of Minotr F.D. properties file   788 does not exist.
 Hyperfine terms turned off by default for NAtoms > 100.

 **********************************************************************

            Population analysis using the SCF Density.

 **********************************************************************

 Orbital symmetries:
       Occupied  (A) (A) (A) (A) (A) (A) (A) (A) (A) (A) (A) (A)
                 (A) (A) (A) (A) (A) (A) (A) (A) (A) (A) (A) (A)
                 (A) (A) (A) (A) (A) (A) (A) (A) (A) (A) (A) (A)
                 (A) (A) (A) (A) (A) (A) (A) (A) (A) (A) (A) (A)
                 (A) (A) (A) (A) (A) (A) (A) (A) (A) (A) (A) (A)
                 (A) (A) (A) (A) (A) (A) (A) (A) (A) (A) (A) (A)
                 (A) (A) (A) (A) (A) (A) (A) (A) (A) (A) (A) (A)
                 (A) (A) (A) (A) (A) (A) (A) (A) (A) (A) (A) (A)
                 (A) (A) (A) (A) (A) (A) (A) (A) (A) (A) (A) (A)
                 (A) (A) (A) (A) (A) (A) (A) (A) (A) (A) (A) (A)
                 (A) (A) (A) (A) (A) (A) (A) (A) (A) (A) (A) (A)
                 (A) (A) (A) (A) (A) (A) (A) (A) (A) (A) (A) (A)
                 (A) (A) (A) (A) (A) (A) (A) (A) (A) (A) (A) (A)
                 (A) (A) (A) (A) (A) (A) (A) (A) (A) (A) (A) (A)
                 (A) (A) (A) (A) (A) (A) (A) (A) (A) (A) (A) (A)
                 (A) (A) (A) (A) (A) (A) (A) (A) (A) (A) (A) (A)
                 (A) (A) (A) (A) (A)
       Virtual   (A) (A) (A) (A) (A) (A) (A) (A) (A) (A) (A) (A)
                 (A) (A) (A) (A) (A) (A) (A) (A) (A) (A) (A) (A)
                 (A) (A) (A) (A) (A) (A) (A) (A) (A) (A) (A) (A)
                 (A) (A) (A) (A) (A) (A) (A) (A) (A) (A) (A) (A)
                 (A) (A) (A) (A) (A) (A) (A) (A) (A) (A) (A) (A)
                 (A) (A) (A) (A) (A) (A) (A) (A) (A) (A) (A) (A)
                 (A) (A) (A) (A) (A) (A) (A) (A) (A) (A) (A) (A)
                 (A) (A) (A) (A) (A) (A) (A) (A) (A) (A) (A) (A)
                 (A) (A) (A) (A) (A) (A) (A) (A) (A) (A) (A) (A)
                 (A) (A) (A) (A) (A) (A) (A) (A) (A) (A) (A) (A)
                 (A) (A) (A) (A) (A) (A) (A) (A) (A)
 The electronic state is 1-A.
 Alpha  occ. eigenvalues --  -20.31293 -20.29829 -20.25165 -20.23309 -19.91992
 Alpha  occ. eigenvalues --  -15.47934 -15.33748 -15.32643 -15.29383 -11.17206
 Alpha  occ. eigenvalues --  -11.15437 -11.10990 -11.10114 -11.10062 -11.09439
 Alpha  occ. eigenvalues --  -11.09179 -11.08844 -11.08518 -11.08086 -11.07306
 Alpha  occ. eigenvalues --  -11.07177 -11.07134 -11.06904 -11.06267 -11.06001
 Alpha  occ. eigenvalues --  -11.05888 -11.05848 -11.05624 -11.05538 -11.05528
 Alpha  occ. eigenvalues --  -11.05332 -11.05056 -11.04995 -11.04827 -11.04744
 Alpha  occ. eigenvalues --  -11.04510 -11.04471 -11.03593 -11.03238 -11.03133
 Alpha  occ. eigenvalues --  -11.03122 -11.03101 -11.02989 -11.02935 -11.01408
 Alpha  occ. eigenvalues --  -11.01354 -11.01231 -11.01159 -11.00947 -11.00933
 Alpha  occ. eigenvalues --  -11.00903 -11.00889 -11.00706 -11.00547  -1.38473
 Alpha  occ. eigenvalues --   -1.37006  -1.28394  -1.28247  -1.26407  -1.21205
 Alpha  occ. eigenvalues --   -1.20782  -1.18467  -1.11963  -1.08622  -1.08132
 Alpha  occ. eigenvalues --   -1.06944  -1.06297  -1.04073  -1.03359  -1.00698
 Alpha  occ. eigenvalues --   -0.99772  -0.98672  -0.97899  -0.97276  -0.96606
 Alpha  occ. eigenvalues --   -0.95751  -0.94753  -0.93449  -0.93351  -0.92264
 Alpha  occ. eigenvalues --   -0.91890  -0.91147  -0.90255  -0.89264  -0.87759
 Alpha  occ. eigenvalues --   -0.86133  -0.84457  -0.82967  -0.82422  -0.80977
 Alpha  occ. eigenvalues --   -0.80731  -0.78911  -0.78722  -0.78004  -0.76195
 Alpha  occ. eigenvalues --   -0.76186  -0.74485  -0.73287  -0.72436  -0.72193
 Alpha  occ. eigenvalues --   -0.71291  -0.70401  -0.69502  -0.69031  -0.66958
 Alpha  occ. eigenvalues --   -0.65877  -0.64201  -0.63965  -0.63804  -0.62915
 Alpha  occ. eigenvalues --   -0.62548  -0.61938  -0.61853  -0.61716  -0.60973
 Alpha  occ. eigenvalues --   -0.60424  -0.59797  -0.59361  -0.59238  -0.58953
 Alpha  occ. eigenvalues --   -0.58274  -0.57789  -0.57579  -0.57211  -0.57017
 Alpha  occ. eigenvalues --   -0.56591  -0.56122  -0.55998  -0.55779  -0.55559
 Alpha  occ. eigenvalues --   -0.55395  -0.55229  -0.54557  -0.54105  -0.53739
 Alpha  occ. eigenvalues --   -0.53448  -0.52968  -0.52738  -0.52632  -0.52169
 Alpha  occ. eigenvalues --   -0.52109  -0.51173  -0.50651  -0.50512  -0.50151
 Alpha  occ. eigenvalues --   -0.49904  -0.49680  -0.49510  -0.48839  -0.48601
 Alpha  occ. eigenvalues --   -0.48407  -0.47901  -0.47767  -0.47488  -0.46787
 Alpha  occ. eigenvalues --   -0.46281  -0.46077  -0.45903  -0.45815  -0.45291
 Alpha  occ. eigenvalues --   -0.45098  -0.44757  -0.44666  -0.44175  -0.43800
 Alpha  occ. eigenvalues --   -0.43632  -0.43332  -0.42970  -0.42391  -0.41965
 Alpha  occ. eigenvalues --   -0.41942  -0.41471  -0.41094  -0.40994  -0.40536
 Alpha  occ. eigenvalues --   -0.40338  -0.39571  -0.39315  -0.38779  -0.37611
 Alpha  occ. eigenvalues --   -0.37302  -0.36516  -0.35622  -0.35112  -0.34571
 Alpha  occ. eigenvalues --   -0.33835  -0.32881  -0.32267  -0.32173  -0.30850
 Alpha  occ. eigenvalues --   -0.26734  -0.26436  -0.26047  -0.21013  -0.19639
 Alpha  occ. eigenvalues --   -0.15866  -0.15695
 Alpha virt. eigenvalues --    0.27238   0.27820   0.28196   0.29798   0.30039
 Alpha virt. eigenvalues --    0.31681   0.46585   0.47319   0.48974   0.49202
 Alpha virt. eigenvalues --    0.50210   0.50443   0.50751   0.51586   0.52685
 Alpha virt. eigenvalues --    0.52914   0.54373   0.55400   0.55588   0.56611
 Alpha virt. eigenvalues --    0.56740   0.57343   0.58242   0.58470   0.58602
 Alpha virt. eigenvalues --    0.59068   0.59371   0.60173   0.60630   0.61361
 Alpha virt. eigenvalues --    0.61652   0.61997   0.62434   0.62603   0.63202
 Alpha virt. eigenvalues --    0.63372   0.63804   0.63969   0.64331   0.64493
 Alpha virt. eigenvalues --    0.64628   0.65031   0.65239   0.65604   0.65712
 Alpha virt. eigenvalues --    0.66072   0.66179   0.66777   0.66909   0.67529
 Alpha virt. eigenvalues --    0.67869   0.68003   0.68283   0.68732   0.69091
 Alpha virt. eigenvalues --    0.69204   0.69290   0.69379   0.69878   0.70028
 Alpha virt. eigenvalues --    0.70189   0.70831   0.70886   0.71128   0.71282
 Alpha virt. eigenvalues --    0.71752   0.72042   0.72277   0.72609   0.72648
 Alpha virt. eigenvalues --    0.73202   0.73346   0.73556   0.73852   0.74040
 Alpha virt. eigenvalues --    0.74469   0.74603   0.75021   0.75186   0.75372
 Alpha virt. eigenvalues --    0.75473   0.75808   0.76126   0.76355   0.76551
 Alpha virt. eigenvalues --    0.77113   0.77318   0.77365   0.77462   0.77746
 Alpha virt. eigenvalues --    0.77873   0.78118   0.78553   0.78826   0.79130
 Alpha virt. eigenvalues --    0.79480   0.80027   0.80219   0.80523   0.80816
 Alpha virt. eigenvalues --    0.81271   0.81464   0.81813   0.81970   0.82273
 Alpha virt. eigenvalues --    0.82630   0.83412   0.83988   0.84078   0.84807
 Alpha virt. eigenvalues --    0.85908   0.86412   0.86669   0.87021   0.88205
 Alpha virt. eigenvalues --    0.88831   0.90210   0.91529   0.92204   0.94796
 Alpha virt. eigenvalues --    0.95432   0.96298   0.98831   1.00771   1.01424
 Alpha virt. eigenvalues --    1.11459   1.12232   1.16615   1.17026
          Condensed to atoms (all electrons):
 Mulliken charges:
               1
     1  C   -0.076837
     2  C    0.000538
     3  C   -0.063264
     4  C   -0.091178
     5  C    0.091682
     6  C   -0.014897
     7  N   -0.285487
     8  C    0.015882
     9  C    0.130923
    10  C    0.039162
    11  C   -0.114558
    12  C   -0.108039
    13  C    0.041514
    14  N   -0.292121
    15  C   -0.012888
    16  C   -0.095629
    17  C   -0.100380
    18  C   -0.096690
    19  C   -0.019498
    20  C   -0.104065
    21  C   -0.063819
    22  C    0.315553
    23  O   -0.273814
    24  O   -0.258375
    25  C   -0.055679
    26  C   -0.077452
    27  C   -0.109324
    28  C    0.000249
    29  C   -0.072730
    30  C   -0.060736
    31  C   -0.091650
    32  C    0.087830
    33  C   -0.014664
    34  N   -0.287091
    35  C    0.020688
    36  C    0.128438
    37  C    0.040728
    38  C   -0.115917
    39  C   -0.104840
    40  C    0.028059
    41  N   -0.085869
    42  C   -0.007906
    43  C   -0.110830
    44  C   -0.102136
    45  C   -0.106790
    46  C   -0.012161
    47  C   -0.111485
    48  C   -0.067140
    49  C    0.320427
    50  O   -0.279023
    51  O   -0.254018
    52  C   -0.055634
    53  C   -0.079363
    54  O   -0.455039
    55  H    0.064352
    56  H    0.054457
    57  H    0.057694
    58  H    0.045463
    59  H    0.054007
    60  H    0.048357
    61  H    0.047483
    62  H    0.049328
    63  H    0.045282
    64  H    0.058102
    65  H    0.049084
    66  H    0.053212
    67  H    0.047422
    68  H    0.050033
    69  H    0.058766
    70  H    0.055912
    71  H    0.060697
    72  H    0.052416
    73  H    0.047020
    74  H    0.081864
    75  H    0.061654
    76  H    0.072506
    77  H    0.075580
    78  H    0.073051
    79  H    0.053370
    80  H    0.073103
    81  H    0.075916
    82  H    0.055664
    83  H    0.060804
    84  H    0.089688
    85  H    0.055729
    86  H    0.056796
    87  H    0.086264
    88  H    0.052926
    89  H    0.059780
    90  H    0.051470
    91  H    0.054795
    92  H    0.088605
    93  H    0.080473
    94  H    0.065654
    95  H    0.057403
    96  H    0.056617
    97  H    0.057518
    98  H    0.082241
    99  H    0.071545
   100  H    0.088792
   101  H    0.067904
   102  H    0.065802
   103  H    0.055019
   104  H    0.067200
   105  H    0.072971
   106  H    0.078964
   107  H    0.075704
   108  H    0.075129
   109  H    0.073227
   110  H    0.056530
 Sum of Mulliken charges =  -0.00000
 Mulliken charges with hydrogens summed into heavy atoms:
               1
     1  C   -0.012484
     2  C    0.000538
     3  C   -0.008807
     4  C   -0.033484
     5  C    0.091682
     6  C   -0.014897
     7  N   -0.285487
     8  C    0.015882
     9  C    0.130923
    10  C    0.084625
    11  C   -0.012195
    12  C   -0.011228
    13  C    0.041514
    14  N   -0.292121
    15  C    0.090496
    16  C    0.006666
    17  C   -0.002925
    18  C    0.017988
    19  C    0.093615
    20  C    0.024818
    21  C   -0.002165
    22  C    0.315553
    23  O   -0.273814
    24  O   -0.258375
    25  C    0.165457
    26  C    0.124937
    27  C    0.007144
    28  C    0.000249
    29  C    0.016958
    30  C   -0.005007
    31  C   -0.034854
    32  C    0.087830
    33  C   -0.014664
    34  N   -0.287091
    35  C    0.020688
    36  C    0.128438
    37  C    0.126992
    38  C   -0.003211
    39  C    0.001426
    40  C    0.028059
    41  N   -0.085869
    42  C    0.161172
    43  C    0.012227
    44  C    0.011999
    45  C    0.046997
    46  C    0.144535
    47  C    0.009336
    48  C    0.000060
    49  C    0.320427
    50  O   -0.279023
    51  O   -0.254018
    52  C    0.172006
    53  C    0.125523
    54  O   -0.455039
 Electronic spatial extent (au):  <R**2>=          37221.0238
 Charge=              0.0000 electrons
 Dipole moment (field-independent basis, Debye):
    X=              2.6341    Y=             -1.9780    Z=              2.5171  Tot=              4.1457
 Quadrupole moment (field-independent basis, Debye-Ang):
   XX=           -275.3356   YY=           -290.7165   ZZ=           -305.2029
   XY=             -1.3726   XZ=             13.7695   YZ=             -6.3370
 Traceless Quadrupole moment (field-independent basis, Debye-Ang):
   XX=             15.0827   YY=             -0.2982   ZZ=            -14.7846
   XY=             -1.3726   XZ=             13.7695   YZ=             -6.3370
 Octapole moment (field-independent basis, Debye-Ang**2):
  XXX=            113.2818  YYY=            -39.9478  ZZZ=             26.9497  XYY=             20.5127
  XXY=             13.2487  XXZ=             19.2797  XZZ=             31.6044  YZZ=            -32.7260
  YYZ=             26.6569  XYZ=             11.3121
 Hexadecapole moment (field-independent basis, Debye-Ang**3):
 XXXX=         -30813.2834 YYYY=          -8946.2885 ZZZZ=          -4718.1943 XXXY=            219.4072
 XXXZ=            -24.3485 YYYX=            -31.6334 YYYZ=             60.0554 ZZZX=            -87.9023
 ZZZY=            -86.0028 XXYY=          -6984.3566 XXZZ=          -6270.3992 YYZZ=          -2265.3747
 XXYZ=           -103.2133 YYXZ=            -91.5959 ZZXY=            110.1914
 N-N= 8.152218171691D+03 E-N=-2.168153666272D+04  KE= 2.279166885757D+03
 ******************************Gaussian NBO Version 3.1******************************
             N A T U R A L   A T O M I C   O R B I T A L   A N D
          N A T U R A L   B O N D   O R B I T A L   A N A L Y S I S
 ******************************Gaussian NBO Version 3.1******************************
       /RESON  / : Allow strongly delocalized NBO set
       /NLMO   / : Form Natural Localized Molecular Orbitals
       /NMR /    : Analyze NMR Sheilding Tensor 

 Analyzing the SCF density

 Job title: pleiokomenine_C_1a                                              

 Storage needed:    355564 in NPA,    438187 in NBO,   2133784 in NLMO ( 104796000 available)
 GSVD:  LWork=     -108884 too small for GESVD, short by      536270 words or      536270 for optimal perf.


 NATURAL POPULATIONS:  Natural atomic orbital occupancies 
                                                          
   NAO  Atom  No  lang   Type(AO)    Occupancy      Energy
 ----------------------------------------------------------
     1    C    1  S      Cor( 1S)     1.99992     -10.93439
     2    C    1  S      Val( 2S)     1.07945      -0.16630
     3    C    1  px     Val( 2p)     0.98969       0.10739
     4    C    1  py     Val( 2p)     0.98470       0.15098
     5    C    1  pz     Val( 2p)     1.00574       0.09262
 
     6    C    2  S      Cor( 1S)     1.99990     -10.94528
     7    C    2  S      Val( 2S)     1.07838      -0.17297
     8    C    2  px     Val( 2p)     0.95690       0.12643
     9    C    2  py     Val( 2p)     0.96771       0.16771
    10    C    2  pz     Val( 2p)     0.98237       0.10531
 
    11    C    3  S      Cor( 1S)     1.99994     -10.93753
    12    C    3  S      Val( 2S)     1.08335      -0.17223
    13    C    3  px     Val( 2p)     0.98480       0.11197
    14    C    3  py     Val( 2p)     0.98242       0.14781
    15    C    3  pz     Val( 2p)     0.98443       0.10281
 
    16    C    4  S      Cor( 1S)     1.99993     -10.93083
    17    C    4  S      Val( 2S)     1.07125      -0.16294
    18    C    4  px     Val( 2p)     1.01514       0.09900
    19    C    4  py     Val( 2p)     0.98412       0.15200
    20    C    4  pz     Val( 2p)     1.01850       0.09125
 
    21    C    5  S      Cor( 1S)     1.99985     -10.97868
    22    C    5  S      Val( 2S)     1.05949      -0.17481
    23    C    5  px     Val( 2p)     0.92151       0.11795
    24    C    5  py     Val( 2p)     0.97159       0.15555
    25    C    5  pz     Val( 2p)     0.93197       0.09990
 
    26    C    6  S      Cor( 1S)     1.99990     -10.93689
    27    C    6  S      Val( 2S)     1.08436      -0.17944
    28    C    6  px     Val( 2p)     0.99631       0.11243
    29    C    6  py     Val( 2p)     0.95152       0.15030
    30    C    6  pz     Val( 2p)     0.99244       0.10816
 
    31    N    7  S      Cor( 1S)     1.99998     -15.25852
    32    N    7  S      Val( 2S)     1.39667      -0.58048
    33    N    7  px     Val( 2p)     1.18501      -0.01811
    34    N    7  py     Val( 2p)     1.18617      -0.02078
    35    N    7  pz     Val( 2p)     1.50654      -0.14219
 
    36    C    8  S      Cor( 1S)     1.99996     -10.99572
    37    C    8  S      Val( 2S)     1.10631      -0.22032
    38    C    8  px     Val( 2p)     0.94476       0.11156
    39    C    8  py     Val( 2p)     0.95841       0.12553
    40    C    8  pz     Val( 2p)     0.97483       0.08682
 
    41    C    9  S      Cor( 1S)     1.99996     -11.04063
    42    C    9  S      Val( 2S)     1.11111      -0.24547
    43    C    9  px     Val( 2p)     0.94120       0.10169
    44    C    9  py     Val( 2p)     0.87427       0.12197
    45    C    9  pz     Val( 2p)     0.89959       0.10154
 
    46    C   10  S      Cor( 1S)     1.99994     -11.00343
    47    C   10  S      Val( 2S)     1.09321      -0.20474
    48    C   10  px     Val( 2p)     0.96706       0.09163
    49    C   10  py     Val( 2p)     0.88951       0.12043
    50    C   10  pz     Val( 2p)     0.97946       0.10558
 
    51    C   11  S      Cor( 1S)     1.99994     -10.97057
    52    C   11  S      Val( 2S)     1.10406      -0.20526
    53    C   11  px     Val( 2p)     1.00729       0.08938
    54    C   11  py     Val( 2p)     0.99169       0.09737
    55    C   11  pz     Val( 2p)     0.98136       0.09442
 
    56    C   12  S      Cor( 1S)     1.99996     -10.96796
    57    C   12  S      Val( 2S)     1.08870      -0.18821
    58    C   12  px     Val( 2p)     1.01119       0.09650
    59    C   12  py     Val( 2p)     0.98294       0.09648
    60    C   12  pz     Val( 2p)     0.99526       0.09950
 
    61    C   13  S      Cor( 1S)     1.99998     -10.99508
    62    C   13  S      Val( 2S)     1.10033      -0.21227
    63    C   13  px     Val( 2p)     0.94770       0.11734
    64    C   13  py     Val( 2p)     0.94464       0.12134
    65    C   13  pz     Val( 2p)     0.94426       0.11945
 
    66    N   14  S      Cor( 1S)     1.99999     -15.22465
    67    N   14  S      Val( 2S)     1.42523      -0.57239
    68    N   14  px     Val( 2p)     1.30531      -0.04861
    69    N   14  py     Val( 2p)     1.15870       0.01172
    70    N   14  pz     Val( 2p)     1.39194      -0.07837
 
    71    C   15  S      Cor( 1S)     1.99994     -10.99947
    72    C   15  S      Val( 2S)     1.07063      -0.18101
    73    C   15  px     Val( 2p)     0.98833       0.09002
    74    C   15  py     Val( 2p)     0.96258       0.10115
    75    C   15  pz     Val( 2p)     0.93708       0.11656
 
    76    C   16  S      Cor( 1S)     1.99996     -10.97075
    77    C   16  S      Val( 2S)     1.08469      -0.18446
    78    C   16  px     Val( 2p)     0.96997       0.10668
    79    C   16  py     Val( 2p)     0.98749       0.10117
    80    C   16  pz     Val( 2p)     1.01629       0.10055
 
    81    C   17  S      Cor( 1S)     1.99995     -10.97210
    82    C   17  S      Val( 2S)     1.09070      -0.19049
    83    C   17  px     Val( 2p)     1.00071       0.09956
    84    C   17  py     Val( 2p)     0.97856       0.10234
    85    C   17  pz     Val( 2p)     0.99434       0.09856
 
    86    C   18  S      Cor( 1S)     1.99994     -10.96946
    87    C   18  S      Val( 2S)     1.09344      -0.19003
    88    C   18  px     Val( 2p)     0.99337       0.09915
    89    C   18  py     Val( 2p)     0.98638       0.09411
    90    C   18  pz     Val( 2p)     0.98936       0.10620
 
    91    C   19  S      Cor( 1S)     1.99995     -10.99378
    92    C   19  S      Val( 2S)     1.07351      -0.17993
    93    C   19  px     Val( 2p)     0.92006       0.12925
    94    C   19  py     Val( 2p)     0.99466       0.08763
    95    C   19  pz     Val( 2p)     0.97820       0.09131
 
    96    C   20  S      Cor( 1S)     1.99992     -10.97317
    97    C   20  S      Val( 2S)     1.10174      -0.20104
    98    C   20  px     Val( 2p)     1.01216       0.09592
    99    C   20  py     Val( 2p)     0.99260       0.10096
   100    C   20  pz     Val( 2p)     0.95992       0.09973
 
   101    C   21  S      Cor( 1S)     1.99994     -11.00127
   102    C   21  S      Val( 2S)     1.11488      -0.23392
   103    C   21  px     Val( 2p)     1.00610       0.07531
   104    C   21  py     Val( 2p)     0.99733       0.07510
   105    C   21  pz     Val( 2p)     0.96020       0.09494
 
   106    C   22  S      Cor( 1S)     1.99991     -11.10191
   107    C   22  S      Val( 2S)     1.05666      -0.25175
   108    C   22  px     Val( 2p)     0.87267      -0.00902
   109    C   22  py     Val( 2p)     0.77321       0.17958
   110    C   22  pz     Val( 2p)     0.90016       0.13285
 
   111    O   23  S      Cor( 1S)     1.99999     -20.08622
   112    O   23  S      Val( 2S)     1.80915      -1.04495
   113    O   23  px     Val( 2p)     1.30531      -0.13418
   114    O   23  py     Val( 2p)     1.66635      -0.23199
   115    O   23  pz     Val( 2p)     1.52782      -0.17326
 
   116    O   24  S      Cor( 1S)     1.99999     -20.20754
   117    O   24  S      Val( 2S)     1.72817      -1.02066
   118    O   24  px     Val( 2p)     1.80801      -0.34875
   119    O   24  py     Val( 2p)     1.33299      -0.14167
   120    O   24  pz     Val( 2p)     1.40015      -0.17554
 
   121    C   25  S      Cor( 1S)     1.99984     -11.04097
   122    C   25  S      Val( 2S)     1.07677      -0.22255
   123    C   25  px     Val( 2p)     1.02565       0.04743
   124    C   25  py     Val( 2p)     1.02001       0.04104
   125    C   25  pz     Val( 2p)     0.84275       0.08860
 
   126    C   26  S      Cor( 1S)     1.99992     -11.00693
   127    C   26  S      Val( 2S)     1.06392      -0.18561
   128    C   26  px     Val( 2p)     0.96829       0.08452
   129    C   26  py     Val( 2p)     0.97051       0.08484
   130    C   26  pz     Val( 2p)     1.01258       0.07220
 
   131    C   27  S      Cor( 1S)     1.99996     -10.97268
   132    C   27  S      Val( 2S)     1.08241      -0.17740
   133    C   27  px     Val( 2p)     0.98031       0.10627
   134    C   27  py     Val( 2p)     1.02252       0.09665
   135    C   27  pz     Val( 2p)     1.00079       0.10099
 
   136    C   28  S      Cor( 1S)     1.99990     -10.94657
   137    C   28  S      Val( 2S)     1.07770      -0.17336
   138    C   28  px     Val( 2p)     0.95125       0.14690
   139    C   28  py     Val( 2p)     0.96006       0.18531
   140    C   28  pz     Val( 2p)     0.99756       0.06249
 
   141    C   29  S      Cor( 1S)     1.99993     -10.93348
   142    C   29  S      Val( 2S)     1.08456      -0.16643
   143    C   29  px     Val( 2p)     0.99168       0.12826
   144    C   29  py     Val( 2p)     0.98761       0.16781
   145    C   29  pz     Val( 2p)     0.98816       0.06377
 
   146    C   30  S      Cor( 1S)     1.99994     -10.94129
   147    C   30  S      Val( 2S)     1.08371      -0.17515
   148    C   30  px     Val( 2p)     0.97744       0.13408
   149    C   30  py     Val( 2p)     0.97592       0.16426
   150    C   30  pz     Val( 2p)     0.99432       0.05537
 
   151    C   31  S      Cor( 1S)     1.99993     -10.93475
   152    C   31  S      Val( 2S)     1.07128      -0.16746
   153    C   31  px     Val( 2p)     1.00279       0.12095
   154    C   31  py     Val( 2p)     0.97028       0.16912
   155    C   31  pz     Val( 2p)     1.04532       0.04011
 
   156    C   32  S      Cor( 1S)     1.99985     -10.98342
   157    C   32  S      Val( 2S)     1.05949      -0.18049
   158    C   32  px     Val( 2p)     0.89519       0.13448
   159    C   32  py     Val( 2p)     0.97157       0.16613
   160    C   32  pz     Val( 2p)     0.96231       0.05331
 
   161    C   33  S      Cor( 1S)     1.99990     -10.94100
   162    C   33  S      Val( 2S)     1.08042      -0.18077
   163    C   33  px     Val( 2p)     0.98856       0.13918
   164    C   33  py     Val( 2p)     0.93872       0.16034
   165    C   33  pz     Val( 2p)     1.02205       0.05667
 
   166    N   34  S      Cor( 1S)     1.99998     -15.26972
   167    N   34  S      Val( 2S)     1.40623      -0.59609
   168    N   34  px     Val( 2p)     1.42258      -0.11866
   169    N   34  py     Val( 2p)     1.07179       0.01164
   170    N   34  pz     Val( 2p)     1.37503      -0.10614
 
   171    C   35  S      Cor( 1S)     1.99996     -11.01851
   172    C   35  S      Val( 2S)     1.11006      -0.24319
   173    C   35  px     Val( 2p)     0.96826       0.06654
   174    C   35  py     Val( 2p)     0.96222       0.10242
   175    C   35  pz     Val( 2p)     0.93777       0.09879
 
   176    C   36  S      Cor( 1S)     1.99996     -11.05665
   177    C   36  S      Val( 2S)     1.11217      -0.26274
   178    C   36  px     Val( 2p)     0.92236       0.08071
   179    C   36  py     Val( 2p)     0.84605       0.11757
   180    C   36  pz     Val( 2p)     0.94792       0.07557
 
   181    C   37  S      Cor( 1S)     1.99991     -11.04092
   182    C   37  S      Val( 2S)     1.12088      -0.26244
   183    C   37  px     Val( 2p)     1.01316       0.05974
   184    C   37  py     Val( 2p)     0.93002       0.06072
   185    C   37  pz     Val( 2p)     0.86274       0.09600
 
   186    C   38  S      Cor( 1S)     1.99994     -10.98647
   187    C   38  S      Val( 2S)     1.10476      -0.22171
   188    C   38  px     Val( 2p)     1.00339       0.07590
   189    C   38  py     Val( 2p)     0.98745       0.08157
   190    C   38  pz     Val( 2p)     0.99092       0.07584
 
   191    C   39  S      Cor( 1S)     1.99996     -10.98886
   192    C   39  S      Val( 2S)     1.09216      -0.21148
   193    C   39  px     Val( 2p)     1.01427       0.07585
   194    C   39  py     Val( 2p)     0.97780       0.07801
   195    C   39  pz     Val( 2p)     0.98870       0.08067
 
   196    C   40  S      Cor( 1S)     1.99998     -11.02409
   197    C   40  S      Val( 2S)     1.10491      -0.24694
   198    C   40  px     Val( 2p)     0.94311       0.09061
   199    C   40  py     Val( 2p)     0.94968       0.09160
   200    C   40  pz     Val( 2p)     0.95249       0.07940
 
   201    N   41  S      Cor( 1S)     1.99999     -15.41802
   202    N   41  S      Val( 2S)     1.40215      -0.66175
   203    N   41  px     Val( 2p)     1.21099      -0.11401
   204    N   41  py     Val( 2p)     1.16666      -0.10408
   205    N   41  pz     Val( 2p)     1.19423      -0.11381
 
   206    C   42  S      Cor( 1S)     1.99991     -11.03574
   207    C   42  S      Val( 2S)     1.08947      -0.23275
   208    C   42  px     Val( 2p)     1.01606       0.04529
   209    C   42  py     Val( 2p)     0.84546       0.09356
   210    C   42  pz     Val( 2p)     1.00572       0.05914
 
   211    C   43  S      Cor( 1S)     1.99997     -10.99944
   212    C   43  S      Val( 2S)     1.07890      -0.21026
   213    C   43  px     Val( 2p)     1.02097       0.06520
   214    C   43  py     Val( 2p)     1.00499       0.06428
   215    C   43  pz     Val( 2p)     0.97643       0.07143
 
   216    C   44  S      Cor( 1S)     1.99996     -10.99623
   217    C   44  S      Val( 2S)     1.08466      -0.21082
   218    C   44  px     Val( 2p)     1.01652       0.06862
   219    C   44  py     Val( 2p)     0.98011       0.07488
   220    C   44  pz     Val( 2p)     0.98851       0.07457
 
   221    C   45  S      Cor( 1S)     1.99994     -10.98892
   222    C   45  S      Val( 2S)     1.09330      -0.20917
   223    C   45  px     Val( 2p)     1.02676       0.08059
   224    C   45  py     Val( 2p)     0.96909       0.07997
   225    C   45  pz     Val( 2p)     0.99198       0.07649
 
   226    C   46  S      Cor( 1S)     1.99992     -11.02844
   227    C   46  S      Val( 2S)     1.09097      -0.22726
   228    C   46  px     Val( 2p)     0.85773       0.09187
   229    C   46  py     Val( 2p)     1.00462       0.05922
   230    C   46  pz     Val( 2p)     1.00825       0.05524
 
   231    C   47  S      Cor( 1S)     1.99992     -10.99674
   232    C   47  S      Val( 2S)     1.09927      -0.22462
   233    C   47  px     Val( 2p)     0.96677       0.07278
   234    C   47  py     Val( 2p)     0.97339       0.07830
   235    C   47  pz     Val( 2p)     1.03573       0.06030
 
   236    C   48  S      Cor( 1S)     1.99995     -11.01589
[...]
  106      26.0652       -0.1026      26.1678         0.4264      25.6388
  107       1.7282        3.7050      -1.9768        -0.0803       1.8085
 Sum       30.7451        5.0793      25.6659         0.3177      30.4275

 Contributions to Isotropic shielding for atom   95 (    32.5642 ppm):
                         Standard Origin              Atomic Origin
 NLMO      Total    Paramagnetic  Diamagnetic   Paramagnetic  Diamagnetic
   98      -0.1393        0.3301      -0.4694        -1.2112       1.0719
  100      -0.2228        0.4760      -0.6987        -1.0240       0.8013
  102       1.2148        0.6842       0.5306         0.4141       0.8007
  105       1.1524        0.8042       0.3483         0.2623       0.8902
  106       2.0339        3.8258      -1.7919         0.2056       1.8283
  107      26.3702       -0.2559      26.6261         0.5278      25.8423
  114      -0.1720       -1.3284       1.1564        -0.3078       0.1358
  116      -0.3264       -1.7620       1.4356        -0.6443       0.3180
 Sum       29.9109        2.7739      27.1370        -1.7775      31.6884

 Contributions to Isotropic shielding for atom   96 (    32.6024 ppm):
                         Standard Origin              Atomic Origin
 NLMO      Total    Paramagnetic  Diamagnetic   Paramagnetic  Diamagnetic
   97       2.0119       -1.6075       3.6195         1.1991       0.8128
  102       0.2368       -1.3653       1.6021        -0.5509       0.7876
  105       1.4193        0.1407       1.2786         0.5416       0.8777
  106       0.0982       -0.9179       1.0161        -0.8145       0.9126
  108      26.1108        0.5460      25.5647         0.3128      25.7980
  109       1.7212        1.6854       0.0359        -0.0680       1.7893
 Sum       31.5982       -1.5187      33.1169         0.6201      30.9780

 Contributions to Isotropic shielding for atom   97 (    32.4807 ppm):
                         Standard Origin              Atomic Origin
 NLMO      Total    Paramagnetic  Diamagnetic   Paramagnetic  Diamagnetic
   97       1.0896        1.0446       0.0450         0.3167       0.7729
   98      -0.2234        0.9554      -1.1788        -1.2707       1.0473
  105       0.4808        3.0923      -2.6115        -0.4664       0.9472
  108       2.3219        0.6916       1.6303         0.5472       1.7747
  109      26.3753       -0.2239      26.5993         0.5901      25.7852
  117      -0.0347       -1.5879       1.5533        -0.8839       0.8493
 Sum       30.0096        3.9721      26.0375        -1.1670      31.1766

 Contributions to Isotropic shielding for atom   98 (    31.6485 ppm):
                         Standard Origin              Atomic Origin
 NLMO      Total    Paramagnetic  Diamagnetic   Paramagnetic  Diamagnetic
   71      -0.7845       -0.0188      -0.7657        -1.8898       1.1053
   80      -0.1008        0.6925      -0.7933        -1.1874       1.0866
   85       1.9836       -1.5127       3.4962         1.1440       0.8396
   89      -0.1063        0.1472      -0.2536        -1.0407       0.9344
  100       0.5108       -0.7976       1.3084        -0.1385       0.6493
  111      25.6722        0.1940      25.4783         0.5208      25.1515
  112       1.6429        2.4502      -0.8073        -0.3668       2.0097
  113      -0.0801       -0.7657       0.6856        -1.1759       1.0958
  121       0.0561       -1.1046       1.1608        -0.7367       0.7928
 Sum       28.7939       -0.7156      29.5094        -4.8710      33.6648

 Contributions to Isotropic shielding for atom   99 (    32.8562 ppm):
                         Standard Origin              Atomic Origin
 NLMO      Total    Paramagnetic  Diamagnetic   Paramagnetic  Diamagnetic
   83      -0.4051        1.2433      -1.6483        -1.0062       0.6012
   85       1.1136        0.3535       0.7600         0.3789       0.7346
   87      -0.2803       -0.1851      -0.0952        -1.1185       0.8382
   89      -0.2291        0.3041      -0.5332        -1.1489       0.9198
  100       0.3898       -0.6299       1.0197         0.3454       0.0443
  110       0.4189        2.3217      -1.9028        -0.2395       0.6584
  111       2.0330        2.4063      -0.3733         0.1003       1.9327
  112      26.0525       -0.1933      26.2459         0.5794      25.4731
  118       0.7487       -1.2092       1.9579        -0.0757       0.8244
  120       1.4083       -0.5617       1.9700         0.4934       0.9149
  121      -0.2793       -3.4097       3.1304        -1.2535       0.9742
  123       0.3496       -0.9645       1.3141        -0.4120       0.7616
  126       0.0476       -1.7421       1.7897        -0.4458       0.4934
  191      -0.5774        1.3369      -1.9144         0.2895      -0.8669
 Sum       30.7907       -0.9298      31.7205        -3.5133      34.3040

 Contributions to Isotropic shielding for atom  100 (    30.9464 ppm):
                         Standard Origin              Atomic Origin
 NLMO      Total    Paramagnetic  Diamagnetic   Paramagnetic  Diamagnetic
   99      -0.4282        0.7748      -1.2030        -1.0980       0.6697
  100       1.3577       -0.7678       2.1256         0.4892       0.8686
  101       0.0518        0.9193      -0.8674        -0.9759       1.0277
  111      -0.0457        0.0418      -0.0875        -1.2215       1.1758
  113      25.8267        0.4976      25.3292         0.9209      24.9058
  114       1.0964        2.1288      -1.0324        -0.6570       1.7534
  121       0.0654       -1.0707       1.1361        -0.5530       0.6184
  195       0.3518       -1.0779       1.4298         1.1887      -0.8369
 Sum       28.2760        1.4457      26.8302        -1.9066      30.1825

 Contributions to Isotropic shielding for atom  101 (    31.4759 ppm):
                         Standard Origin              Atomic Origin
 NLMO      Total    Paramagnetic  Diamagnetic   Paramagnetic  Diamagnetic
   89      -0.3706        0.6024      -0.9730        -1.0457       0.6751
   99      -0.5505        1.1938      -1.7443        -1.4564       0.9059
  100       1.0884       -0.5668       1.6552         0.5046       0.5839
  107      -0.2479       -1.6373       1.3893        -0.7767       0.5287
  113       1.3688        2.2787      -0.9099        -0.5332       1.9020
  114      26.5771        0.2734      26.3037         1.0229      25.5541
  116      -0.4811       -2.4747       1.9936        -0.5020       0.0210
  120       0.6845       -0.6591       1.3436         0.2649       0.4196
  121       0.2548       -2.2227       2.4775        -0.7167       0.9714
  191      -0.6883        1.2976      -1.9859         0.1983      -0.8866
 Sum       27.6352       -1.9145      29.5497        -3.0399      30.6752

 Contributions to Isotropic shielding for atom  102 (    31.6443 ppm):
                         Standard Origin              Atomic Origin
 NLMO      Total    Paramagnetic  Diamagnetic   Paramagnetic  Diamagnetic
   87       0.3491       -1.0220       1.3711         0.0619       0.2872
   97      -0.2258        1.1403      -1.3662        -0.9473       0.7215
   98       1.8642       -1.3656       3.2298         0.9275       0.9367
  105      -0.1090        0.2275      -0.3365        -1.0437       0.9347
  107      -0.3634       -1.9052       1.5418        -0.7255       0.3621
  114      -0.3969       -1.8072       1.4102        -0.2635      -0.1334
  115       0.4525        2.0030      -1.5506        -0.4015       0.8539
  116      26.2530       -0.1429      26.3959         0.6041      25.6489
  117       1.5623        3.3879      -1.8257        -0.3459       1.9082
  118       0.1270       -0.1189       0.2460        -0.9657       1.0928
  120       0.4787       -1.6198       2.0985        -0.3996       0.8784
  121       0.6134       -2.5455       3.1589        -1.0933       1.7067
  191      -0.7433        1.1094      -1.8527         0.1648      -0.9081
 Sum       29.8618       -2.6588      32.5206        -4.4279      34.2896

 Contributions to Isotropic shielding for atom  103 (    32.2491 ppm):
                         Standard Origin              Atomic Origin
 NLMO      Total    Paramagnetic  Diamagnetic   Paramagnetic  Diamagnetic
   87       0.3927       -0.8849       1.2776         0.1889       0.2038
   94      -0.2114        1.3905      -1.6019        -1.0671       0.8556
   97      -0.2339        1.4326      -1.6665        -1.0494       0.8155
   98       1.9248       -0.5692       2.4940         0.9372       0.9876
  115       0.3950        2.7599      -2.3649        -0.6754       1.0704
  116       1.6793        2.9915      -1.3122        -0.2206       1.8999
  117      26.4613       -0.4391      26.9004         0.6296      25.8317
  119      -0.1575       -0.7473       0.5899        -1.3082       1.1507
  121       0.2548       -0.8506       1.1053        -0.7764       1.0312
 Sum       30.5050        5.0833      25.4217        -3.3413      33.8464

 Contributions to Isotropic shielding for atom  104 (    31.2280 ppm):
                         Standard Origin              Atomic Origin
 NLMO      Total    Paramagnetic  Diamagnetic   Paramagnetic  Diamagnetic
   81      -0.5301        1.3693      -1.8994        -1.2345       0.7044
   82      -0.0579        0.0188      -0.0767        -1.0028       0.9448
   86      -0.3702        1.5402      -1.9104        -1.4837       1.1136
   87       2.0429       -0.3605       2.4034         1.1035       0.9394
   98       0.2765       -0.7898       1.0662         0.0609       0.2156
  115       1.3538        1.2903       0.0635         0.2292       1.1246
  117      -0.2400        0.1720      -0.4121        -1.4091       1.1690
  118      -0.0766        4.9623      -5.0389        -0.9644       0.8879
  119      25.9716       -0.6963      26.6679         0.4642      25.5074
  122       0.9451       -2.1282       3.0733        -0.7288       1.6740
  126       0.1533       -0.9370       1.0903        -0.2986       0.4519
  127      -0.2283       -2.2213       1.9930        -0.6470       0.4187
  193      -0.8514        0.3347      -1.1860         0.1514      -1.0028
 Sum       28.3888        2.5546      25.8342        -5.7598      34.1486

 Contributions to Isotropic shielding for atom  105 (    30.5682 ppm):
                         Standard Origin              Atomic Origin
 NLMO      Total    Paramagnetic  Diamagnetic   Paramagnetic  Diamagnetic
  120      -1.4096        1.0347      -2.4443        -2.3030       0.8933
  121      -0.6084        2.3410      -2.9494        -2.1692       1.5608
  122      -2.0276        1.5041      -3.5316        -2.8106       0.7830
  123       1.4002       -0.1261       1.5262        -0.0656       1.4657
  124      26.5051        0.6587      25.8463         1.2741      25.2309
  125       1.1337        4.6449      -3.5112        -0.9086       2.0423
  126       1.3935        1.0913       0.3021        -0.4781       1.8716
  191       0.6509       -1.7669       2.4178         1.4241      -0.7732
  192       0.8366        1.0614      -0.2248         1.0598      -0.2232
  193       1.6041       -1.1868       2.7909         1.6645      -0.0604
  194       0.5579        1.0768      -0.5189         0.0851       0.4728
 Sum       30.0362       10.3331      19.7031        -3.2273      33.2635

 Contributions to Isotropic shielding for atom  106 (    30.5065 ppm):
                         Standard Origin              Atomic Origin
 NLMO      Total    Paramagnetic  Diamagnetic   Paramagnetic  Diamagnetic
  120      -0.6864        0.3427      -1.0292        -1.3069       0.6205
  121      -0.1548        1.1517      -1.3065        -1.1855       1.0308
  122      -0.5678        0.4660      -1.0337        -0.6037       0.0359
  123       1.0197        0.9681       0.0516        -1.0552       2.0750
  124       0.5261        4.0555      -3.5295        -1.4594       1.9855
  125      26.0258        0.3597      25.6661         0.8564      25.1695
  126       1.2612        1.3733      -0.1122        -0.7345       1.9957
  191       0.2656       -0.7908       1.0564         0.6447      -0.3791
  193       1.0789       -1.0324       2.1113         1.5479      -0.4690
  194       1.0652        0.4821       0.5832         0.8087       0.2565
 Sum       29.8336        7.3759      22.4577        -2.4876      32.3212

 Contributions to Isotropic shielding for atom  107 (    30.6269 ppm):
                         Standard Origin              Atomic Origin
 NLMO      Total    Paramagnetic  Diamagnetic   Paramagnetic  Diamagnetic
  120      -0.9917        0.7240      -1.7157        -1.8993       0.9076
  121      -0.4779        1.5662      -2.0441        -2.0040       1.5262
  122      -1.4050        1.4748      -2.8799        -2.2550       0.8499
  123       2.8999       -5.1452       8.0451         1.4858       1.4141
  124       1.1001        1.6632      -0.5631        -0.7748       1.8749
  125       1.4426        1.9547      -0.5121        -0.6026       2.0452
  126      26.1578        1.0195      25.1383         0.9979      25.1600
  191       0.3714       -1.1487       1.5201         1.1378      -0.7665
 Sum       29.0972        2.1085      26.9887        -3.9142      33.0114

 Contributions to Isotropic shielding for atom  108 (    30.9992 ppm):
                         Standard Origin              Atomic Origin
 NLMO      Total    Paramagnetic  Diamagnetic   Paramagnetic  Diamagnetic
   76      -0.5254       -0.0084      -0.5170        -1.3819       0.8565
   81      -0.4705        0.9474      -1.4179        -1.1960       0.7255
   82       1.2033       -0.1990       1.4022         0.0140       1.1893
   86      -0.1780        0.8230      -1.0010        -1.0058       0.8278
   87      -0.2264        1.0216      -1.2480        -1.1080       0.8816
  118      -0.3556        0.5316      -0.8872        -1.0773       0.7216
  122       1.0987       -1.0863       2.1850         0.5082       0.5904
  125       0.0678       -1.2079       1.2757        -0.6498       0.7176
  127      26.0172        0.1903      25.8269         0.6552      25.3621
  128       1.4826        3.9572      -2.4746        -0.5022       1.9848
  129       1.6827        0.7487       0.9340        -0.1492       1.8319
  190       0.9658       -0.0372       1.0030         0.9713      -0.0055
  193      -1.0245        0.4940      -1.5185         0.2583      -1.2828
 Sum       29.7376        6.1751      23.5626        -4.6631      34.4008

 Contributions to Isotropic shielding for atom  109 (    30.7600 ppm):
                         Standard Origin              Atomic Origin
 NLMO      Total    Paramagnetic  Diamagnetic   Paramagnetic  Diamagnetic
   75      -0.5735        0.7248      -1.2983        -1.2897       0.7162
   76      -0.9449        0.2559      -1.2007        -2.3051       1.3603
   79      -0.4728        0.7877      -1.2605        -1.1019       0.6290
   82       1.2246        0.3880       0.8365        -0.0315       1.2561
  122       0.6743       -0.5277       1.2019         0.3678       0.3065
  125       0.0091       -1.1749       1.1840        -0.6074       0.6166
  127       1.5155        3.9011      -2.3857        -0.4530       1.9685
  128      26.0435        0.1070      25.9365         0.7087      25.3348
  129       1.6740        1.1435       0.5305        -0.1233       1.7973
 Sum       29.1497        5.6054      23.5443        -4.8355      33.9852

 Contributions to Isotropic shielding for atom  110 (    31.9892 ppm):
                         Standard Origin              Atomic Origin
 NLMO      Total    Paramagnetic  Diamagnetic   Paramagnetic  Diamagnetic
   76      -0.8163       -0.0967      -0.7195        -2.0300       1.2138
   79      -0.4212        0.6643      -1.0855        -1.0778       0.6566
   82       2.0692       -3.2304       5.2996         1.3016       0.7676
   86      -0.2148        0.6116      -0.8265        -1.2481       1.0333
  122       0.5213       -0.5700       1.0913        -0.0583       0.5796
  127       1.8130        1.5597       0.2534        -0.1020       1.9151
  128       1.8084        2.1616      -0.3531        -0.0877       1.8962
  129      26.4244        0.8191      25.6053         0.7437      25.6806
 Sum       31.1841        1.9191      29.2649        -2.5587      33.7427
 
 1\1\GINC-PCSN02\SP\RHF\STO-3G\C45H56N4O5\ABENIDD\30-May-2024\0\\# nmr=
 giao hf/sto-3g pop=nbo geom=connectivity\\pleiokomenine_C_1a\\0,1\C,0,
 0.,0.,0.\C,0,1.4021,0.,0.\C,0,2.0962,1.229,0.\C,0,1.4124,2.4529,-0.008
 9\C,0,0.0297,2.4451,-0.0066\C,0,-0.6606,1.2167,0.0199\N,0,-0.8597,3.55
 21,-0.0207\C,0,-2.1296,1.5127,0.1922\C,0,-2.1283,2.9339,-0.4755\C,0,-3
 .2077,0.6537,-0.4656\C,0,-2.066,2.7673,-2.0607\C,0,-3.2406,1.9414,-2.5
 897\C,0,-4.1088,1.4742,-1.4152\N,0,-4.0641,0.239,0.6505\C,0,-4.9826,-0
 .8101,0.2662\C,0,-5.9615,-0.1955,-0.75\C,0,-5.261,0.5596,-1.8968\C,0,-
 2.4008,1.3362,1.7113\C,0,-3.1921,0.0278,1.7836\C,0,-4.6282,2.7656,-0.6
 888\C,0,-3.4507,3.6955,-0.2383\C,0,-3.5992,4.3619,1.124\O,0,-2.8356,5.
 2189,1.555\O,0,-4.7233,3.9667,1.7814\C,0,-4.907,4.5792,3.0579\C,0,-0.3
 792,4.8042,-0.5754\C,0,2.1569,-1.3096,0.0984\C,0,2.3531,-1.7664,1.5281
 \C,0,1.2571,-2.2308,2.2678\C,0,3.6204,-1.7093,2.1403\C,0,3.7972,-2.087
 3,3.4788\C,0,2.6966,-2.4956,4.2144\C,0,1.4389,-2.5765,3.5964\N,0,2.638
 5,-2.8395,5.5919\C,0,0.4304,-3.1043,4.5855\C,0,1.198,-2.6603,5.8973\C,
 0,-0.9981,-2.5317,4.6253\C,0,0.9054,-1.117,6.1631\C,0,-0.5905,-0.865,6
 .3971\C,0,-1.3684,-2.1642,6.1022\N,0,-1.8744,-3.5844,3.9672\C,0,-3.336
 3,-3.4637,4.3099\C,0,-3.6498,-3.1694,5.7636\C,0,-2.8781,-1.9463,6.2435
 \C,0,0.2465,-4.6114,4.2743\C,0,-1.2494,-4.8891,4.3501\C,0,-0.8669,-3.1
 89,7.1772\C,0,0.6725,-3.3664,7.1562\C,0,1.0808,-4.8153,7.3539\O,0,0.33
 41,-5.7747,7.2014\O,0,2.3661,-4.9025,7.7922\C,0,2.8388,-6.2387,7.9621\
 C,0,3.6698,-2.2709,6.4476\O,0,-1.7973,-3.4494,2.5869\H,0,-0.5577,-0.93
 12,0.0432\H,0,3.1837,1.2362,0.0271\H,0,1.9704,3.3817,0.0011\H,0,-2.764
 ,-0.2116,-0.9772\H,0,-1.1309,2.301,-2.3948\H,0,-2.0753,3.7538,-2.5434\
 H,0,-3.8309,2.5403,-3.2942\H,0,-2.8574,1.0843,-3.1575\H,0,-4.4621,-1.6
 733,-0.1654\H,0,-5.5525,-1.165,1.1323\H,0,-6.6003,-0.9826,-1.167\H,0,-
 6.629,0.5015,-0.2268\H,0,-4.8568,-0.1899,-2.5904\H,0,-6.0011,1.1384,-2
 .4622\H,0,-3.0104,2.1425,2.119\H,0,-1.5021,1.2741,2.3365\H,0,-2.5457,-
 0.8476,1.6607\H,0,-3.7385,-0.0538,2.7278\H,0,-5.2708,3.3318,-1.377\H,0
 ,-5.2787,2.4865,0.1445\H,0,-3.4822,4.5603,-0.9196\H,0,-5.0401,5.6599,2
 .948\H,0,-5.8135,4.1625,3.5055\H,0,-4.0624,4.3556,3.7174\H,0,0.0298,4.
 6747,-1.5836\H,0,0.398,5.2349,0.0648\H,0,-1.1889,5.538,-0.6325\H,0,3.1
 266,-1.2105,-0.4064\H,0,1.6231,-2.0899,-0.4603\H,0,0.2748,-2.32,1.8131
 \H,0,4.4815,-1.3595,1.5756\H,0,4.7844,-2.0325,3.9224\H,0,-1.1125,-1.64
 54,3.9855\H,0,1.465,-0.7637,7.0388\H,0,1.2448,-0.489,5.3299\H,0,-0.757
 1,-0.5375,7.4311\H,0,-0.931,-0.0421,5.7561\H,0,-3.7153,-2.6449,3.6845\
 H,0,-3.8087,-4.3941,3.9752\H,0,-4.7247,-2.98,5.8665\H,0,-3.4332,-4.041
 9,6.3871\H,0,-3.1884,-1.072,5.6564\H,0,-3.1425,-1.7308,7.2857\H,0,0.56
 ,-4.8409,3.2458\H,0,0.8384,-5.283,4.8939\H,0,-1.581,-5.6492,3.6351\H,0
 ,-1.5926,-5.159,5.3466\H,0,-1.3877,-4.1421,7.0919\H,0,-1.1466,-2.8216,
 8.1755\H,0,1.0581,-2.8523,8.05\H,0,2.2768,-6.744,8.7536\H,0,3.89,-6.19
 08,8.2593\H,0,2.7705,-6.7941,7.0213\H,0,3.4506,-2.4667,7.5016\H,0,4.64
 03,-2.731,6.2332\H,0,3.7597,-1.1861,6.3205\\Version=ES64L-G16RevB.01\S
 tate=1-A\HF=-2300.2195606\RMSD=3.574e-09\Dipole=-0.2105197,-0.1423108,
 1.6111393\Quadrupole=0.9527439,-12.024851,11.0721071,-3.5688565,2.6580
 425,-9.8741789\PG=C01 [X(C45H56N4O5)]\\@


 "MATHEMATICS IS THE ART OF GIVING THE SAME NAME
 TO DIFFERENT THINGS."
                    - H. POINCARE
 Job cpu time:       0 days  0 hours 11 minutes 36.3 seconds.
 Elapsed time:       0 days  0 hours  1 minutes 57.0 seconds.
 File lengths (MBytes):  RWF=     67 Int=      0 D2E=      0 Chk=     10 Scr=      1
 Normal termination of Gaussian 16 at Thu May 30 08:45:14 2024.
