 Entering Gaussian System, Link 0=g16
 Input=1_pleiokomenine_1a_c_14.gjf
 Output=1_pleiokomenine_1a_c_14.log
 Initial command:
 /opt/gaussian/g16/l1.exe "/data/abenidd/Elvis/pleiokomenine_C/NMR_HF/1a/1_pleiokomenine_1a_c_14/Gau-24479.inp" -scrdir="/data/abenidd/Elvis/pleiokomenine_C/NMR_HF/1a/1_pleiokomenine_1a_c_14/"
 Entering Link 1 = /opt/gaussian/g16/l1.exe PID=     24481.
  
 Copyright (c) 1988-2017, Gaussian, Inc.  All Rights Reserved.
  
 This is part of the Gaussian(R) 16 program.  It is based on
 the Gaussian(R) 09 system (copyright 2009, Gaussian, Inc.),
 the Gaussian(R) 03 system (copyright 2003, Gaussian, Inc.),
 the Gaussian(R) 98 system (copyright 1998, Gaussian, Inc.),
 the Gaussian(R) 94 system (copyright 1995, Gaussian, Inc.),
 the Gaussian 92(TM) system (copyright 1992, Gaussian, Inc.),
 the Gaussian 90(TM) system (copyright 1990, Gaussian, Inc.),
 the Gaussian 88(TM) system (copyright 1988, Gaussian, Inc.),
 the Gaussian 86(TM) system (copyright 1986, Carnegie Mellon
 University), and the Gaussian 82(TM) system (copyright 1983,
 Carnegie Mellon University). Gaussian is a federally registered
 trademark of Gaussian, Inc.
  
 This software contains proprietary and confidential information,
 including trade secrets, belonging to Gaussian, Inc.
  
 This software is provided under written license and may be
 used, copied, transmitted, or stored only in accord with that
 written license.
  
 The following legend is applicable only to US Government
 contracts under FAR:
  
                    RESTRICTED RIGHTS LEGEND
  
 Use, reproduction and disclosure by the US Government is
 subject to restrictions as set forth in subparagraphs (a)
 and (c) of the Commercial Computer Software - Restricted
 Rights clause in FAR 52.227-19.
  
 Gaussian, Inc.
 340 Quinnipiac St., Bldg. 40, Wallingford CT 06492
  
  
 ---------------------------------------------------------------
 Warning -- This program may not be used in any manner that
 competes with the business of Gaussian, Inc. or will provide
 assistance to any competitor of Gaussian, Inc.  The licensee
 of this program is prohibited from giving any competitor of
 Gaussian, Inc. access to this program.  By using this program,
 the user acknowledges that Gaussian, Inc. is engaged in the
 business of creating and licensing software in the field of
 computational chemistry and represents and warrants to the
 licensee that it is not a competitor of Gaussian, Inc. and that
 it will not use this program in any manner prohibited above.
 ---------------------------------------------------------------
  

 Cite this work as:
 Gaussian 16, Revision B.01,
 M. J. Frisch, G. W. Trucks, H. B. Schlegel, G. E. Scuseria, 
 M. A. Robb, J. R. Cheeseman, G. Scalmani, V. Barone, 
 G. A. Petersson, H. Nakatsuji, X. Li, M. Caricato, A. V. Marenich, 
 J. Bloino, B. G. Janesko, R. Gomperts, B. Mennucci, H. P. Hratchian, 
 J. V. Ortiz, A. F. Izmaylov, J. L. Sonnenberg, D. Williams-Young, 
 F. Ding, F. Lipparini, F. Egidi, J. Goings, B. Peng, A. Petrone, 
 T. Henderson, D. Ranasinghe, V. G. Zakrzewski, J. Gao, N. Rega, 
 G. Zheng, W. Liang, M. Hada, M. Ehara, K. Toyota, R. Fukuda, 
 J. Hasegawa, M. Ishida, T. Nakajima, Y. Honda, O. Kitao, H. Nakai, 
 T. Vreven, K. Throssell, J. A. Montgomery, Jr., J. E. Peralta, 
 F. Ogliaro, M. J. Bearpark, J. J. Heyd, E. N. Brothers, K. N. Kudin, 
 V. N. Staroverov, T. A. Keith, R. Kobayashi, J. Normand, 
 K. Raghavachari, A. P. Rendell, J. C. Burant, S. S. Iyengar, 
 J. Tomasi, M. Cossi, J. M. Millam, M. Klene, C. Adamo, R. Cammi, 
 J. W. Ochterski, R. L. Martin, K. Morokuma, O. Farkas, 
 J. B. Foresman, and D. J. Fox, Gaussian, Inc., Wallingford CT, 2016.
 
 ******************************************
 Gaussian 16:  ES64L-G16RevB.01 20-Dec-2017
                30-May-2024 
 ******************************************
 %nprocshared=8
 Will use up to    8 processors via shared memory.
 ----------------------------------------------
 # nmr=giao hf/sto-3g pop=nbo geom=connectivity
 ----------------------------------------------
 1/38=1,57=2,172=1/1;
 2/12=2,17=6,18=5,40=1/2;
 3/6=3,11=9,25=1,30=1/1,2,3,8;
 4//1;
 5/5=2,38=5/2;
 8/6=1,10=90,11=11/1;
 10/13=100,45=16/2;
 6/7=2,8=2,9=2,10=2,28=1,40=1,64=1/1,7;
 99/9=1/99;
 ------------------
 pleiokomenine_C_1a
 ------------------
 Symbolic Z-matrix:
 Charge =  0 Multiplicity = 1
 C                     0.        0.        0. 
 C                     1.4025    0.        0. 
 C                     2.089     1.2344    0. 
 C                     1.4036    2.4548   -0.0642 
 C                     0.0236    2.4398   -0.1497 
 C                    -0.6647    1.2115   -0.1012 
 N                    -0.8611    3.5445   -0.3276 
 C                    -2.1443    1.4993   -0.1378 
 C                    -2.0604    2.8737   -0.8965 
 C                    -3.1174    0.5839   -0.8839 
 C                    -1.7939    2.6009   -2.4499 
 C                    -2.8865    1.7299   -3.0715 
 C                    -3.8967    1.3334   -1.9895 
 N                    -4.1045    0.2112    0.1294 
 C                    -4.9731   -0.8578   -0.3035 
 C                    -5.8169   -0.3084   -1.4664 
 C                    -4.979     0.3846   -2.5572 
 C                    -2.613     1.4116    1.3377 
 C                    -3.4062    0.1031    1.3881 
 C                    -4.5078    2.664    -1.4242 
 C                    -3.4034    3.634    -0.8887 
 C                    -3.8099    4.3143    0.4086 
 O                    -4.8206    4.0619    1.053 
 O                    -2.9501    5.3254    0.7162 
 C                    -3.2486    5.9993    1.938 
 C                    -0.2986    4.7303   -0.9558 
 C                     2.1983   -1.2921    0.0438 
 C                     1.6174   -2.4658   -0.7236 
 C                     1.1062   -2.3019   -2.0201 
 C                     1.6316   -3.7537   -0.1499 
 C                     1.0998   -4.8583   -0.827 
 C                     0.5324   -4.6708   -2.0758 
 C                     0.5516   -3.3962   -2.667 
 N                    -0.1273   -5.6303   -2.8887 
 C                    -0.0639   -3.4812   -4.043 
 C                    -0.9414   -4.7747   -3.7828 
 C                    -0.9796   -2.358    -4.5644 
 C                    -2.2739   -4.3456   -3.0225 
 C                    -3.1137   -3.382    -3.8704 
 C                    -2.3048   -2.9813   -5.1211 
 N                    -0.1424   -1.5881   -5.5705 
 C                    -0.9504   -0.76     -6.5347 
 C                    -2.1925   -1.4248   -7.0942 
 C                    -3.0693   -1.9597   -5.9686 
 C                     1.1077   -3.541    -5.0558 
 C                     0.7278   -2.623    -6.2108 
 C                    -2.1147   -4.3136   -5.9248 
 C                    -1.4399   -5.4245   -5.0822 
 C                    -0.4258   -6.2149   -5.89 
 O                     0.0695   -5.8364   -6.9448 
 O                    -0.194    -7.4301   -5.3233 
 C                     0.7828   -8.2181   -6.0038 
 C                    -0.7025   -6.7806   -2.207 
 O                     0.6713   -0.6913   -4.8946 
 H                    -0.5586   -0.9293    0.0503 
 H                     3.1767    1.2496    0.032 
 H                     1.9615    3.3835   -0.0777 
 H                    -2.6013   -0.2996   -1.2846 
 H                    -1.7452    3.5529   -2.9953 
 H                    -0.8226    2.1237   -2.6301 
 H                    -3.3815    2.2743   -3.8852 
 H                    -2.4309    0.8413   -3.5265 
 H                    -4.4059   -1.7422   -0.6174 
 H                    -5.6472   -1.165     0.5039 
 H                    -6.3992   -1.122    -1.9142 
 H                    -6.5439    0.4129   -1.0709 
 H                    -4.4924   -0.3983   -3.1516 
 H                    -5.6426    0.9244   -3.2432 
 H                    -3.2717    2.2331    1.615 
 H                    -1.8033    1.3967    2.077 
 H                    -2.7469   -0.7712    1.4272 
 H                    -4.0842    0.0838    2.2465 
 H                    -5.0594    3.1761   -2.2245 
 H                    -5.2553    2.4422   -0.6555 
 H                    -3.3493    4.4649   -1.6089 
 H                    -3.2526    5.2954    2.7763 
 H                    -2.4656    6.7418    2.115 
 H                    -4.2085    6.5193    1.8621 
 H                     0.2325    4.4953   -1.885 
 H                     0.396     5.2304   -0.2723 
 H                    -1.0857    5.4521   -1.1946 
 H                     2.3129   -1.5604    1.1019 
 H                     3.2066   -1.1192   -0.3541 
 H                     1.1344   -1.331    -2.5112 
 H                     2.0586   -3.9032    0.8397 
 H                     1.125    -5.8348   -0.3577 
 H                    -1.2187   -1.6189   -3.7866 
 H                    -2.8816   -5.2275   -2.7823 
 H                    -2.0577   -3.8715   -2.0569 
 H                    -3.3804   -2.5046   -3.2696 
 H                    -4.0601   -3.8595   -4.154 
 H                    -1.2425    0.1375   -5.9736 
 H                    -0.262    -0.4548   -7.3308 
 H                    -2.7614   -0.6892   -7.6749 
 H                    -1.9197   -2.2199   -7.7941 
 H                    -3.3993   -1.1217   -5.3415 
 H                    -3.9766   -2.4081   -6.3909 
 H                     2.028    -3.1319   -4.6146 
 H                     1.384    -4.5437   -5.3782 
 H                     0.1578   -3.1187   -6.9935 
 H                     1.5898   -2.1162   -6.6567 
 H                    -1.5915   -4.141    -6.8646 
 H                    -3.1027   -4.6841   -6.2353 
 H                    -2.2265   -6.157    -4.8449 
 H                     0.9291   -9.1408   -5.4355 
 H                     1.739    -7.6876   -6.054 
 H                     0.4303   -8.4798   -7.0062 
 H                    -1.3137   -7.3737   -2.8939 
 H                     0.0894   -7.4396   -1.8352 
 H                    -1.338    -6.485    -1.3645 
 
 Stoichiometry    C45H56N4O5
 Framework group  C1[X(C45H56N4O5)]
 Deg. of freedom   324
 Full point group                 C1      NOp   1
 Largest Abelian subgroup         C1      NOp   1
 Largest concise Abelian subgroup C1      NOp   1
                         Standard orientation:                         
 ---------------------------------------------------------------------
 Center     Atomic      Atomic             Coordinates (Angstroms)
 Number     Number       Type             X           Y           Z
 ---------------------------------------------------------------------
      1          6           0        1.666700    2.354203   -0.309019
      2          6           0        1.332173    3.498441    0.429775
      3          6           0        2.201291    3.931780    1.455386
      4          6           0        3.354275    3.210750    1.793045
      5          6           0        3.628737    2.037753    1.114308
      6          6           0        2.789061    1.629919    0.059109
      7          7           0        4.676402    1.101300    1.359580
      8          6           0        3.364747    0.372399   -0.541403
      9          6           0        4.120749   -0.132022    0.741430
     10          6           0        2.463128   -0.752098   -1.055342
     11          6           0        3.063194   -0.770572    1.757464
     12          6           0        2.288599   -1.926275    1.122518
     13          6           0        2.731147   -2.094012   -0.335033
     14          7           0        2.886215   -0.942528   -2.442707
     15          6           0        1.985535   -1.787766   -3.190356
     16          6           0        2.073264   -3.194363   -2.573945
     17          6           0        1.915567   -3.202650   -1.041877
     18          6           0        4.130489    0.838669   -1.806592
     19          6           0        3.249664    0.354567   -2.961439
     20          6           0        4.268921   -2.407512   -0.313271
     21          6           0        5.081096   -1.301344    0.437810
     22          6           0        6.386770   -0.964593   -0.264222
     23          8           0        6.734301   -1.396557   -1.356514
     24          8           0        7.179337   -0.191893    0.530114
     25          6           0        8.416680    0.190664   -0.068778
     26          6           0        5.224768    1.080976    2.707187
     27          6           0        0.082807    4.305295    0.125130
     28          6           0       -1.138988    3.515177   -0.307130
     29          6           0       -1.519008    2.343488    0.365055
     30          6           0       -1.937205    3.985474   -1.369998
     31          6           0       -3.068381    3.279706   -1.798657
     32          6           0       -3.391736    2.086888   -1.174777
     33          6           0       -2.621241    1.635247   -0.089950
     34          7           0       -4.437937    1.184594   -1.503382
     35          6           0       -3.223835    0.358780    0.445733
     36          6           0       -3.968583   -0.076248   -0.883535
     37          6           0       -2.322620   -0.800338    0.910705
     38          6           0       -2.916932   -0.774775   -1.855043
     39          6           0       -2.328307   -2.041383   -1.221049
     40          6           0       -2.802485   -2.134310    0.243755
     41          7           0       -2.374054   -0.768893    2.428022
     42          6           0       -1.963720   -2.061826    3.082427
     43          6           0       -2.499510   -3.325332    2.438773
     44          6           0       -2.183093   -3.345212    0.948351
     45          6           0       -4.052569    0.744428    1.697316
     46          6           0       -3.763177   -0.317046    2.751166
     47          6           0       -4.358779   -2.299776    0.156215
     48          6           0       -5.033911   -1.155676   -0.640441
     49          6           0       -6.335343   -0.706851    0.000263
     50          8           0       -6.656729   -0.941871    1.158997
     51          8           0       -7.128082   -0.070471   -0.904268
     52          6           0       -8.355858    0.420119   -0.365705
     53          6           0       -4.927197    1.221356   -2.873795
     54          8           0       -1.484581    0.187519    2.894191
     55          1           0        1.047157    2.022508   -1.136249
     56          1           0        1.970343    4.835836    2.015468
     57          1           0        3.991622    3.562876    2.595363
     58          1           0        1.403254   -0.468343   -0.994985
     59          1           0        3.579300   -1.138958    2.654160
     60          1           0        2.343403   -0.031679    2.131030
     61          1           0        2.461082   -2.849071    1.690147
     62          1           0        1.212123   -1.722256    1.184001
     63          1           0        0.955507   -1.412833   -3.160693
     64          1           0        2.287276   -1.846728   -4.242094
     65          1           0        1.310653   -3.840725   -3.023593
     66          1           0        3.045161   -3.636487   -2.829222
     67          1           0        0.851423   -3.063521   -0.815461
     68          1           0        2.187363   -4.189857   -0.649583
     69          1           0        5.111670    0.374716   -1.894199
     70          1           0        4.289319    1.921508   -1.874661
     71          1           0        2.380126    1.004484   -3.110160
     72          1           0        3.818370    0.291885   -3.893937
     73          1           0        4.434482   -3.365544    0.198348
     74          1           0        4.640549   -2.557150   -1.332267
     75          1           0        5.408419   -1.752363    1.387258
     76          1           0        8.241887    0.736723   -1.001251
     77          1           0        8.938441    0.853965    0.626578
     78          1           0        9.043323   -0.689062   -0.244762
     79          1           0        4.443420    1.009630    3.472112
     80          1           0        5.814463    1.985276    2.892231
     81          1           0        5.898748    0.228809    2.837992
     82          1           0        0.352554    5.028469   -0.655222
     83          1           0       -0.209163    4.883739    1.011158
     84          1           0       -0.955433    1.987337    1.225380
     85          1           0       -1.676335    4.912343   -1.876801
     86          1           0       -3.660126    3.667594   -2.619517
     87          1           0       -1.263755   -0.628680    0.670397
     88          1           0       -3.391493   -1.043329   -2.807626
     89          1           0       -2.095825   -0.097577   -2.121659
     90          1           0       -1.234388   -2.007167   -1.285008
     91          1           0       -2.641907   -2.925867   -1.789776
     92          1           0       -0.866494   -2.072988    3.042028
     93          1           0       -2.264975   -1.984561    4.133185
     94          1           0       -2.034564   -4.195460    2.916967
     95          1           0       -3.574871   -3.419416    2.615439
     96          1           0       -1.094079   -3.343628    0.812544
     97          1           0       -2.550041   -4.279714    0.507160
     98          1           0       -3.712290    1.704326    2.111776
     99          1           0       -5.116387    0.889338    1.515702
    100          1           0       -4.427809   -1.176594    2.699414
    101          1           0       -3.764527    0.080439    3.771323
    102          1           0       -4.802416   -2.425450    1.143203
    103          1           0       -4.586186   -3.244494   -0.359166
    104          1           0       -5.342222   -1.587177   -1.604992
    105          1           0       -8.882671    0.957620   -1.158993
    106          1           0       -8.164791    1.117202    0.456387
    107          1           0       -8.984872   -0.411031   -0.032418
    108          1           0       -5.616277    0.392712   -3.062694
    109          1           0       -5.484215    2.146677   -3.055827
    110          1           0       -4.112979    1.151966   -3.604056
 ---------------------------------------------------------------------
 Rotational constants (GHZ):           0.1034618           0.0349807           0.0325748
 Standard basis: STO-3G (5D, 7F)
 There are   326 symmetry adapted cartesian basis functions of A   symmetry.
 There are   326 symmetry adapted basis functions of A   symmetry.
   326 basis functions,   978 primitive gaussians,   326 cartesian basis functions
   197 alpha electrons      197 beta electrons
       nuclear repulsion energy      8290.3288003539 Hartrees.
 NAtoms=  110 NActive=  110 NUniq=  110 SFac= 1.00D+00 NAtFMM=   60 NAOKFM=T Big=T
 Integral buffers will be    131072 words long.
 Raffenetti 1 integral format.
 Two-electron integral symmetry is turned on.
 One-electron integrals computed using PRISM.
 NBasis=   326 RedAO= T EigKep=  1.73D-01  NBF=   326
 NBsUse=   326 1.00D-06 EigRej= -1.00D+00 NBFU=   326
 ExpMin= 1.69D-01 ExpMax= 1.31D+02 ExpMxC= 1.31D+02 IAcc=3 IRadAn=         5 AccDes= 0.00D+00
 Harris functional with IExCor=  205 and IRadAn=       5 diagonalized for initial guess.
 HarFok:  IExCor=  205 AccDes= 0.00D+00 IRadAn=         5 IDoV= 1 UseB2=F ITyADJ=14
 ICtDFT=  3500011 ScaDFX=  1.000000  1.000000  1.000000  1.000000
 FoFCou: FMM=F IPFlag=           0 FMFlag=      100000 FMFlg1=        2001
         NFxFlg=           0 DoJE=T BraDBF=F KetDBF=T FulRan=T
         wScrn=  0.000000 ICntrl=       500 IOpCl=  0 I1Cent=   200000004 NGrid=           0
         NMat0=    1 NMatS0=      1 NMatT0=    0 NMatD0=    1 NMtDS0=    0 NMtDT0=    0
 Petite list used in FoFCou.
 Requested convergence on RMS density matrix=1.00D-08 within 128 cycles.
 Requested convergence on MAX density matrix=1.00D-06.
 Requested convergence on             energy=1.00D-06.
 No special actions if energy rises.
 Integral accuracy reduced to 1.0D-05 until final iterations.
 Initial convergence to 1.0D-05 achieved.  Increase integral accuracy.
 SCF Done:  E(RHF) =  -2300.21763852     A.U. after   16 cycles
            NFock= 16  Conv=0.40D-08     -V/T= 2.0092
 Range of M.O.s used for correlation:     1   326
 NBasis=   326 NAE=   197 NBE=   197 NFC=     0 NFV=     0
 NROrb=    326 NOA=   197 NOB=   197 NVA=   129 NVB=   129
          Differentiating once with respect to magnetic field using GIAOs.
          Electric field/nuclear overlap derivatives assumed to be zero.
 FoFCou: FMM=F IPFlag=           0 FMFlag=      100000 FMFlg1=        2001
         NFxFlg=           0 DoJE=F BraDBF=F KetDBF=T FulRan=T
         wScrn=  0.000000 ICntrl=      6100 IOpCl=  0 I1Cent=           7 NGrid=         110
         NMat0=    1 NMatS0=      1 NMatT0=    0 NMatD0=    1 NMtDS0=    0 NMtDT0=    0
 Symmetry not used in FoFCou.
 FoFJK:  IHMeth= 1 ICntrl=    6127 DoSepK=F KAlg= 0 I1Cent=           0 FoldK=F
 IRaf=         1 NMat=       1 IRICut=       1 DoRegI=T DoRafI=F ISym2E= 0 IDoP0=0 IntGTp=1.
          There are     3 degrees of freedom in the 1st order CPHF.  IDoFFX=0 NUNeed=     3.
      3 vectors produced by pass  0 Test12= 8.47D-13 3.33D-08 XBig12= 1.48D+02 2.42D+00.
 AX will form     3 AO Fock derivatives at one time.
      3 vectors produced by pass  1 Test12= 8.47D-13 3.33D-08 XBig12= 6.68D-01 2.98D-01.
      3 vectors produced by pass  2 Test12= 8.47D-13 3.33D-08 XBig12= 1.92D-02 3.39D-02.
      3 vectors produced by pass  3 Test12= 8.47D-13 3.33D-08 XBig12= 6.00D-04 7.62D-03.
      3 vectors produced by pass  4 Test12= 8.47D-13 3.33D-08 XBig12= 1.85D-05 8.72D-04.
      3 vectors produced by pass  5 Test12= 8.47D-13 3.33D-08 XBig12= 2.85D-07 9.05D-05.
      3 vectors produced by pass  6 Test12= 8.47D-13 3.33D-08 XBig12= 1.09D-08 2.06D-05.
      3 vectors produced by pass  7 Test12= 8.47D-13 3.33D-08 XBig12= 3.21D-10 3.65D-06.
      3 vectors produced by pass  8 Test12= 8.47D-13 3.33D-08 XBig12= 7.04D-12 3.93D-07.
      3 vectors produced by pass  9 Test12= 8.47D-13 3.33D-08 XBig12= 1.20D-13 7.26D-08.
 InvSVY:  IOpt=1 It=  1 EMax= 3.55D-15
 Solved reduced A of dimension    30 with     3 vectors.
 Calculating GIAO nuclear magnetic shielding tensors.
 SCF GIAO Magnetic shielding tensor (ppm):
      1  C    Isotropic =   126.8968   Anisotropy =   151.7066
   XX=   126.6814   YX=    20.3452   ZX=   -70.2733
   XY=    16.7519   YY=   141.7492   ZY=   -60.0458
   XZ=   -76.3684   YZ=   -57.3393   ZZ=   112.2598
   Eigenvalues:    34.9682   117.6876   228.0345
      2  C    Isotropic =   118.0826   Anisotropy =   161.0446
   XX=    94.7471   YX=    65.1954   ZX=   -44.5603
   XY=    65.3705   YY=   119.5666   ZY=   -44.1025
   XZ=   -56.4352   YZ=   -44.5327   ZZ=   139.9340
   Eigenvalues:    39.0450    89.7572   225.4456
      3  C    Isotropic =   118.5343   Anisotropy =   152.4397
   XX=   137.4441   YX=    47.3170   ZX=   -26.7512
   XY=    53.5504   YY=    84.6194   ZY=   -69.6095
   XZ=   -30.3186   YZ=   -74.9889   ZZ=   133.5395
   Eigenvalues:    26.4235   109.0187   220.1608
      4  C    Isotropic =   133.0994   Anisotropy =   144.2871
   XX=   129.9080   YX=    18.0411   ZX=   -67.1013
   XY=    22.5684   YY=   145.6150   ZY=   -49.0084
   XZ=   -68.1340   YZ=   -60.9508   ZZ=   123.7753
   Eigenvalues:    50.4424   119.5650   229.2908
      5  C    Isotropic =   107.9960   Anisotropy =   128.9101
   XX=    93.4158   YX=    58.6984   ZX=   -45.1204
   XY=    46.1125   YY=   108.4732   ZY=   -26.0525
   XZ=   -54.0591   YZ=   -27.2046   ZZ=   122.0990
   Eigenvalues:    40.9192    89.1328   193.9361
      6  C    Isotropic =   118.0199   Anisotropy =   142.3971
   XX=   126.1477   YX=    35.1684   ZX=   -44.8217
   XY=    42.2907   YY=    92.7190   ZY=   -60.0328
   XZ=   -35.3968   YZ=   -60.3467   ZZ=   135.1931
   Eigenvalues:    48.8030    92.3055   212.9513
      7  N    Isotropic =   271.8589   Anisotropy =    81.0974
   XX=   267.8527   YX=   -25.9435   ZX=    12.9695
   XY=   -30.6274   YY=   309.0378   ZY=   -20.3994
   XZ=    -1.7103   YZ=    -6.9495   ZZ=   238.6864
   Eigenvalues:   236.1170   253.5360   325.9239
      8  C    Isotropic =   198.5097   Anisotropy =    14.3184
   XX=   203.1616   YX=     3.5421   ZX=     0.0497
   XY=     4.7745   YY=   190.4698   ZY=     0.5092
   XZ=     8.3173   YZ=     4.4265   ZZ=   201.8976
   Eigenvalues:   189.1083   198.3654   208.0553
      9  C    Isotropic =   180.0460   Anisotropy =    43.4568
   XX=   177.4095   YX=    14.2066   ZX=    19.2194
   XY=    -3.1930   YY=   190.8300   ZY=    21.2965
   XZ=    22.5546   YZ=    11.5097   ZZ=   171.8985
   Eigenvalues:   151.3840   179.7367   209.0172
     10  C    Isotropic =   189.1262   Anisotropy =    30.7648
   XX=   181.6193   YX=     9.4002   ZX=    -2.2845
   XY=     2.7498   YY=   176.3778   ZY=     3.3578
   XZ=    -0.6506   YZ=     2.0425   ZZ=   209.3815
   Eigenvalues:   172.1305   185.6120   209.6360
     11  C    Isotropic =   212.7091   Anisotropy =    21.5853
   XX=   214.8203   YX=     6.4010   ZX=   -12.1421
   XY=    10.0351   YY=   210.1787   ZY=    -3.8611
   XZ=    -4.6498   YZ=    -4.2903   ZZ=   213.1283
   Eigenvalues:   203.3118   207.7162   227.0993
     12  C    Isotropic =   214.3611   Anisotropy =    16.9863
   XX=   212.6806   YX=     4.1635   ZX=    -2.3773
   XY=     1.7509   YY=   207.1232   ZY=     5.9735
   XZ=    -3.8256   YZ=     6.3563   ZZ=   223.2795
   Eigenvalues:   203.4487   213.9493   225.6853
     13  C    Isotropic =   211.0689   Anisotropy =     7.8631
   XX=   214.1981   YX=     3.1491   ZX=    -1.4557
   XY=     2.3320   YY=   212.5612   ZY=     1.4029
   XZ=     1.9590   YZ=     0.7125   ZZ=   206.4473
   Eigenvalues:   206.2632   210.6325   216.3109
     14  N    Isotropic =   301.0878   Anisotropy =    58.7836
   XX=   262.8600   YX=    29.7748   ZX=    -8.8900
   XY=    36.0613   YY=   300.4414   ZY=     1.8517
   XZ=    -0.9457   YZ=     1.8337   ZZ=   339.9621
   Eigenvalues:   243.4691   319.5175   340.2769
     15  C    Isotropic =   202.6321   Anisotropy =    37.5847
   XX=   200.7830   YX=    12.3505   ZX=    10.3548
   XY=    12.6713   YY=   208.9234   ZY=    13.6266
   XZ=    11.1509   YZ=    12.5008   ZZ=   198.1898
   Eigenvalues:   188.2861   191.9215   227.6885
     16  C    Isotropic =   219.6099   Anisotropy =     7.7747
   XX=   211.7309   YX=     2.8734   ZX=    -0.0495
   XY=    -0.7928   YY=   224.3758   ZY=     0.2651
   XZ=    -2.6982   YZ=    -1.6510   ZZ=   222.7229
   Eigenvalues:   211.4918   222.5448   224.7930
     17  C    Isotropic =   214.1236   Anisotropy =    20.8796
   XX=   212.1013   YX=     6.4811   ZX=     3.5308
   XY=     9.5391   YY=   214.9073   ZY=     9.6520
   XZ=     3.5863   YZ=     7.5860   ZZ=   215.3623
   Eigenvalues:   204.1786   210.1490   228.0434
     18  C    Isotropic =   209.6535   Anisotropy =    30.8366
   XX=   198.2701   YX=    18.0017   ZX=    -7.0231
   XY=    11.6015   YY=   202.4117   ZY=    -2.0067
   XZ=    -7.0400   YZ=     2.8476   ZZ=   228.2787
   Eigenvalues:   184.6708   214.0784   230.2112
     19  C    Isotropic =   200.0919   Anisotropy =    40.5554
   XX=   187.6983   YX=    18.3133   ZX=     0.3601
   XY=    20.5776   YY=   214.5318   ZY=   -12.8834
   XZ=    -4.0440   YZ=    -3.9766   ZZ=   198.0456
   Eigenvalues:   177.2201   195.9268   227.1288
     20  C    Isotropic =   212.2460   Anisotropy =    22.7678
   XX=   226.7833   YX=     1.2607   ZX=     3.5416
   XY=     1.2163   YY=   211.8201   ZY=     4.8075
   XZ=     3.7022   YZ=     2.8103   ZZ=   198.1347
   Eigenvalues:   196.8025   212.5110   227.4246
     21  C    Isotropic =   208.1822   Anisotropy =    12.6226
   XX=   215.0619   YX=     1.4452   ZX=    -1.4863
   XY=    -4.1452   YY=   209.4212   ZY=     1.0539
   XZ=    -7.9994   YZ=    -2.6783   ZZ=   200.0635
   Eigenvalues:   198.5657   209.3836   216.5972
     22  C    Isotropic =    96.8220   Anisotropy =    98.3957
   XX=    19.8998   YX=   -74.8508   ZX=    -9.3223
   XY=   -84.5499   YY=   114.3775   ZY=    -2.6847
   XZ=   -28.8396   YZ=   -11.5124   ZZ=   156.1887
   Eigenvalues:   -27.7055   155.7524   162.4191
     23  O    Isotropic =  -135.7776   Anisotropy =   886.7275
   XX=  -188.5094   YX=  -212.3777   ZX=   186.3668
   XY=  -214.8765   YY=   158.4606   ZY=  -362.5832
   XZ=   171.2306   YZ=  -360.1730   ZZ=  -377.2840
   Eigenvalues:  -572.5819  -290.1249   455.3741
     24  O    Isotropic =   284.5216   Anisotropy =   138.2417
   XX=   222.8020   YX=   -42.1156   ZX=    70.2017
   XY=    33.9663   YY=   361.9661   ZY=   -19.3449
   XZ=   176.7975   YZ=    48.5222   ZZ=   268.7968
   Eigenvalues:   119.5359   357.3462   376.6828
     25  C    Isotropic =   197.3691   Anisotropy =    58.0323
   XX=   224.8752   YX=    14.1522   ZX=   -17.6279
   XY=    14.4677   YY=   182.3459   ZY=    -6.6368
   XZ=   -17.6180   YZ=    -5.8159   ZZ=   184.8861
   Eigenvalues:   177.2609   178.7891   236.0573
     26  C    Isotropic =   209.6149   Anisotropy =    41.5987
   XX=   207.4024   YX=    -0.7448   ZX=    15.2211
   XY=     1.6791   YY=   192.2423   ZY=     1.1890
   XZ=    15.9017   YZ=     1.6313   ZZ=   229.2001
   Eigenvalues:   192.1868   199.3107   237.3474
     27  C    Isotropic =   206.3616   Anisotropy =    22.6415
   XX=   216.2748   YX=     0.7755   ZX=     9.1477
   XY=    -0.2869   YY=   207.9604   ZY=     0.7895
   XZ=    14.2505   YZ=     1.3073   ZZ=   194.8498
   Eigenvalues:   189.6590   207.9700   221.4560
     28  C    Isotropic =   117.6991   Anisotropy =   162.2093
   XX=   102.4364   YX=   -64.0016   ZX=   -52.5258
   XY=   -67.3491   YY=   116.0855   ZY=    37.2912
   XZ=   -64.7490   YZ=    38.0242   ZZ=   134.5754
   Eigenvalues:    37.9533    89.3054   225.8386
     29  C    Isotropic =   121.0029   Anisotropy =   161.9249
   XX=   129.9294   YX=   -28.3992   ZX=   -70.2247
   XY=   -24.3176   YY=   131.0572   ZY=    61.5166
   XZ=   -78.8702   YZ=    59.2354   ZZ=   102.0222
   Eigenvalues:    29.2395   104.8164   228.9529
     30  C    Isotropic =   118.1933   Anisotropy =   152.5252
   XX=   140.9658   YX=   -50.0425   ZX=   -28.7726
   XY=   -55.3933   YY=    77.6791   ZY=    66.1596
   XZ=   -31.8789   YZ=    69.1984   ZZ=   135.9349
   Eigenvalues:    25.3753   109.3278   219.8768
     31  C    Isotropic =   134.4570   Anisotropy =   141.9000
   XX=   138.3549   YX=   -17.9509   ZX=   -66.4571
   XY=   -21.2170   YY=   141.9839   ZY=    50.1548
   XZ=   -65.3468   YZ=    60.1925   ZZ=   123.0322
   Eigenvalues:    53.0975   121.2164   229.0570
     32  C    Isotropic =   109.2125   Anisotropy =   127.1121
   XX=    97.1967   YX=   -57.9378   ZX=   -48.2700
   XY=   -45.3631   YY=   109.1651   ZY=    23.1560
   XZ=   -54.6557   YZ=    23.7297   ZZ=   121.2758
   Eigenvalues:    41.8440    91.8397   193.9539
     33  C    Isotropic =   119.6918   Anisotropy =   136.5235
   XX=   130.0863   YX=   -37.7686   ZX=   -42.2366
   XY=   -38.3599   YY=    92.7486   ZY=    58.2540
   XZ=   -31.4939   YZ=    58.7278   ZZ=   136.2405
   Eigenvalues:    50.3062    98.0617   210.7075
     34  N    Isotropic =   275.0661   Anisotropy =    81.0564
   XX=   270.3167   YX=    26.5764   ZX=    18.1077
   XY=    30.9755   YY=   309.8562   ZY=    21.7773
   XZ=     2.8422   YZ=     9.1683   ZZ=   245.0255
   Eigenvalues:   240.6439   255.4508   329.1038
     35  C    Isotropic =   195.4699   Anisotropy =    14.4680
   XX=   200.1236   YX=    -2.1937   ZX=     1.9778
   XY=    -5.2501   YY=   188.4539   ZY=    -2.4005
   XZ=     6.1426   YZ=    -6.4140   ZZ=   197.8323
   Eigenvalues:   186.3790   194.9155   205.1153
     36  C    Isotropic =   181.4494   Anisotropy =    43.8324
   XX=   173.0353   YX=   -12.5960   ZX=    17.1231
   XY=     3.2229   YY=   195.2456   ZY=   -20.4292
   XZ=    20.6399   YZ=   -13.4943   ZZ=   176.0673
   Eigenvalues:   153.7696   179.9076   210.6710
     37  C    Isotropic =   179.9963   Anisotropy =    44.4513
   XX=   168.3565   YX=    -1.0239   ZX=    -1.8093
   XY=    -7.3544   YY=   162.6314   ZY=    -5.1871
   XZ=    -7.5764   YZ=     0.0077   ZZ=   209.0010
   Eigenvalues:   160.0034   170.3550   209.6305
     38  C    Isotropic =   213.7588   Anisotropy =    20.0988
   XX=   215.5903   YX=    -6.6120   ZX=   -10.3866
   XY=   -10.2508   YY=   211.7869   ZY=     3.6084
   XZ=    -4.6021   YZ=     3.0768   ZZ=   213.8992
   Eigenvalues:   204.3383   209.7801   227.1580
     39  C    Isotropic =   212.7782   Anisotropy =    19.5701
   XX=   209.5867   YX=    -1.5896   ZX=    -4.1605
   XY=    -0.6532   YY=   205.1342   ZY=    -5.2369
   XZ=    -5.7890   YZ=    -2.9779   ZZ=   223.6136
   Eigenvalues:   203.3870   209.1226   225.8249
     40  C    Isotropic =   212.1841   Anisotropy =     8.8090
   XX=   213.6985   YX=    -4.1713   ZX=     0.7737
   XY=    -2.4648   YY=   215.4648   ZY=    -0.9310
   XZ=     0.6431   YZ=     0.3409   ZZ=   207.3891
   Eigenvalues:   207.3098   211.1858   218.0568
     41  N    Isotropic =   234.9319   Anisotropy =    24.8304
   XX=   241.8307   YX=     0.6692   ZX=     8.0399
   XY=    20.6356   YY=   221.3680   ZY=    13.7514
   XZ=     2.2003   YZ=    -2.0948   ZZ=   241.5972
   Eigenvalues:   216.3526   236.9576   251.4855
     42  C    Isotropic =   195.0373   Anisotropy =    47.9727
   XX=   188.9775   YX=    -6.6751   ZX=    11.7838
   XY=   -10.4567   YY=   212.6508   ZY=   -14.1802
   XZ=    11.4990   YZ=   -25.1750   ZZ=   183.4838
   Eigenvalues:   170.7277   187.3652   227.0191
     43  C    Isotropic =   223.0887   Anisotropy =     9.5656
   XX=   216.9444   YX=     1.5795   ZX=     2.5632
   XY=     1.9333   YY=   223.2297   ZY=     0.1565
   XZ=     1.1303   YZ=     0.8835   ZZ=   229.0921
   Eigenvalues:   216.2708   223.5295   229.4658
     44  C    Isotropic =   215.9451   Anisotropy =    17.2748
   XX=   214.7064   YX=    -2.6358   ZX=     4.0190
   XY=    -6.9335   YY=   216.2048   ZY=    -9.5243
   XZ=     3.4602   YZ=    -6.5733   ZZ=   216.9242
   Eigenvalues:   208.3246   212.0492   227.4617
     45  C    Isotropic =   211.2834   Anisotropy =    37.6003
   XX=   199.4640   YX=    -1.4554   ZX=   -19.7083
   XY=    -6.1946   YY=   206.3718   ZY=    -4.2578
   XZ=   -14.6095   YZ=    -5.7698   ZZ=   228.0146
   Eigenvalues:   189.5405   207.9595   236.3503
     46  C    Isotropic =   191.7950   Anisotropy =    54.1122
   XX=   215.3170   YX=   -23.2051   ZX=   -14.7879
   XY=   -26.1416   YY=   169.6277   ZY=    -7.4698
   XZ=    -6.7538   YZ=    -1.7243   ZZ=   190.4403
   Eigenvalues:   156.6366   190.8786   227.8698
     47  C    Isotropic =   212.6289   Anisotropy =    23.1214
   XX=   226.3375   YX=    -3.4231   ZX=     3.9669
   XY=    -4.1633   YY=   212.5259   ZY=    -4.3036
   XZ=     3.6537   YZ=    -2.8527   ZZ=   199.0234
   Eigenvalues:   197.8484   211.9952   228.0432
     48  C    Isotropic =   209.5779   Anisotropy =    11.3256
   XX=   215.5580   YX=    -2.1844   ZX=    -1.9953
   XY=     3.4231   YY=   212.1123   ZY=    -0.2393
   XZ=    -8.0164   YZ=     2.7624   ZZ=   201.0634
   Eigenvalues:   199.3515   212.2540   217.1283
     49  C    Isotropic =    96.1734   Anisotropy =    98.9648
   XX=    18.6689   YX=    73.6133   ZX=   -19.9804
   XY=    78.6344   YY=   118.7562   ZY=     6.1675
   XZ=   -38.8221   YZ=    17.2527   ZZ=   151.0949
   Eigenvalues:   -27.9103   154.2804   162.1499
     50  O    Isotropic =  -133.8412   Anisotropy =   886.7190
   XX=  -176.7495   YX=   249.5951   ZX=   146.7286
   XY=   250.2324   YY=   258.6313   ZY=   252.1038
   XZ=   119.1442   YZ=   247.8782   ZZ=  -483.4055
   Eigenvalues:  -569.3062  -289.5223   457.3048
     51  O    Isotropic =   283.3134   Anisotropy =   138.9388
   XX=   224.7523   YX=    53.8953   ZX=    62.3430
   XY=    -2.5636   YY=   355.6369   ZY=     4.1193
   XZ=   183.4442   YZ=   -66.1952   ZZ=   269.5509
   Eigenvalues:   115.6949   358.3059   375.9392
     52  C    Isotropic =   197.1582   Anisotropy =    58.3501
   XX=   224.1279   YX=   -17.7536   ZX=   -15.0565
   XY=   -17.8125   YY=   184.7917   ZY=     6.9142
   XZ=   -15.2577   YZ=     6.1392   ZZ=   182.5551
   Eigenvalues:   177.0489   178.3674   236.0583
     53  C    Isotropic =   209.8461   Anisotropy =    41.3220
   XX=   206.0688   YX=    -0.0626   ZX=    13.8036
   XY=    -2.5011   YY=   192.6910   ZY=    -2.9084
   XZ=    14.3446   YZ=    -3.1638   ZZ=   230.7786
   Eigenvalues:   192.4472   199.6971   237.3941
     54  O    Isotropic =     5.4007   Anisotropy =   513.4438
   XX=    68.6211   YX=   212.0375   ZX=   105.6041
   XY=   231.9190   YY=    51.5413   ZY=   148.4968
   XZ=    99.3452   YZ=   133.5233   ZZ=  -103.9605
   Eigenvalues:  -194.5085  -136.9860   347.6965
     55  H    Isotropic =    27.0819   Anisotropy =    14.8621
   XX=    31.7755   YX=    -5.4062   ZX=    -0.0476
   XY=    -7.4482   YY=    28.3819   ZY=     1.3788
   XZ=    -2.5977   YZ=     1.8969   ZZ=    21.0884
   Eigenvalues:    20.7370    23.5189    36.9900
     56  H    Isotropic =    25.6295   Anisotropy =     6.3209
   XX=    26.8309   YX=    -0.8599   ZX=     3.9639
   XY=    -0.8442   YY=    25.9209   ZY=     2.1721
   XZ=     4.1024   YZ=     2.2361   ZZ=    24.1368
   Eigenvalues:    20.2960    26.7491    29.8435
     57  H    Isotropic =    26.3786   Anisotropy =     7.8067
   XX=    26.1097   YX=    -2.6268   ZX=     2.8097
   XY=    -1.9414   YY=    29.6260   ZY=     4.0676
   XZ=     2.4338   YZ=     3.3947   ZZ=    23.4002
   Eigenvalues:    19.8468    27.7061    31.5831
     58  H    Isotropic =    32.4687   Anisotropy =    13.0731
   XX=    40.5097   YX=    -2.0308   ZX=     0.7229
   XY=    -3.1678   YY=    30.5901   ZY=     1.8013
   XZ=    -1.4964   YZ=     1.0270   ZZ=    26.3064
   Eigenvalues:    25.8710    30.3511    41.1841
     59  H    Isotropic =    32.0463   Anisotropy =    12.6261
   XX=    29.0025   YX=     2.9718   ZX=     3.7757
   XY=     1.3570   YY=    28.7995   ZY=    -3.1698
   XZ=     4.6571   YZ=    -3.5137   ZZ=    38.3369
   Eigenvalues:    24.6471    31.0281    40.4637
     60  H    Isotropic =    32.6926   Anisotropy =     7.8797
   XX=    34.1683   YX=     0.3219   ZX=    -5.2646
   XY=    -2.1856   YY=    33.6765   ZY=     3.3336
   XZ=    -3.5159   YZ=     0.9946   ZZ=    30.2331
   Eigenvalues:    27.1119    33.0202    37.9458
     61  H    Isotropic =    32.2897   Anisotropy =    13.4012
   XX=    28.5014   YX=     1.7111   ZX=    -0.1464
   XY=     1.3581   YY=    35.4311   ZY=    -6.7252
   XZ=    -0.1152   YZ=    -6.8761   ZZ=    32.9366
   Eigenvalues:    26.7851    28.8601    41.2238
     62  H    Isotropic =    32.5811   Anisotropy =    18.9889
   XX=    44.3812   YX=     1.5798   ZX=    -3.6553
   XY=     0.3675   YY=    26.1619   ZY=     1.0063
   XZ=    -4.0395   YZ=     0.0774   ZZ=    27.2003
   Eigenvalues:    25.5080    26.9950    45.2404
     63  H    Isotropic =    32.8248   Anisotropy =    12.1338
   XX=    39.7836   YX=    -2.5057   ZX=     2.8364
   XY=    -2.0710   YY=    28.6481   ZY=     0.2118
   XZ=     2.8286   YZ=     0.5206   ZZ=    30.0428
   Eigenvalues:    27.7212    29.8393    40.9140
     64  H    Isotropic =    31.8717   Anisotropy =    15.2026
   XX=    26.0921   YX=     1.3265   ZX=    -1.1948
   XY=     0.5116   YY=    28.0128   ZY=     2.2956
   XZ=    -1.7731   YZ=     2.3453   ZZ=    41.5101
   Eigenvalues:    25.3939    28.2144    42.0067
     65  H    Isotropic =    32.5630   Anisotropy =    15.5084
   XX=    31.6251   YX=     5.9576   ZX=     3.6584
   XY=     5.3454   YY=    34.5991   ZY=     5.7684
   XZ=     3.1741   YZ=     5.8945   ZZ=    31.4648
   Eigenvalues:    26.6439    28.1433    42.9019
     66  H    Isotropic =    31.8909   Anisotropy =    14.4955
   XX=    33.0694   YX=    -5.5632   ZX=    -3.3372
   XY=    -6.0793   YY=    32.5544   ZY=     4.6564
   XZ=    -3.5746   YZ=     4.8223   ZZ=    30.0490
   Eigenvalues:    26.1302    27.9881    41.5546
     67  H    Isotropic =    32.7840   Anisotropy =    16.7068
   XX=    42.9219   YX=     2.2377   ZX=    -3.5478
   XY=     1.6503   YY=    27.2053   ZY=     1.4524
   XZ=    -3.7269   YZ=     1.3926   ZZ=    28.2247
   Eigenvalues:    25.3885    29.0416    43.9219
     68  H    Isotropic =    32.3119   Anisotropy =    13.5911
   XX=    27.6350   YX=    -0.0558   ZX=     0.9371
   XY=    -0.1853   YY=    40.7596   ZY=    -2.8365
   XZ=     0.7719   YZ=    -2.7413   ZZ=    28.5411
   Eigenvalues:    26.9581    28.6051    41.3727
     69  H    Isotropic =    32.4679   Anisotropy =    13.1779
   XX=    40.8015   YX=    -2.2793   ZX=    -1.3909
   XY=    -2.5630   YY=    26.0389   ZY=    -2.4125
   XZ=    -0.8431   YZ=    -1.1426   ZZ=    30.5633
   Eigenvalues:    24.9789    31.1717    41.2532
     70  H    Isotropic =    33.0122   Anisotropy =    11.5558
   XX=    30.0331   YX=     3.4516   ZX=    -2.8320
   XY=     5.1735   YY=    37.8058   ZY=    -3.4418
   XZ=    -2.6234   YZ=    -0.7795   ZZ=    31.1975
   Eigenvalues:    27.2749    31.0456    40.7160
     71  H    Isotropic =    32.5693   Anisotropy =    11.0621
   XX=    32.2145   YX=    -4.6874   ZX=     2.3377
   XY=    -5.4248   YY=    33.0961   ZY=    -4.1366
   XZ=     2.4213   YZ=    -2.5742   ZZ=    32.3974
   Eigenvalues:    27.4995    30.2645    39.9441
     72  H    Isotropic =    32.0652   Anisotropy =    16.3985
   XX=    29.6089   YX=     1.2971   ZX=    -5.7699
   XY=     2.3007   YY=    26.5198   ZY=    -2.6729
   XZ=    -5.8816   YZ=    -0.8310   ZZ=    40.0669
   Eigenvalues:    25.5922    27.6058    42.9975
     73  H    Isotropic =    32.0314   Anisotropy =    14.7866
   XX=    30.3128   YX=    -4.0011   ZX=     2.9986
   XY=    -3.4340   YY=    39.4349   ZY=    -3.2294
   XZ=     2.8402   YZ=    -3.5355   ZZ=    26.3466
   Eigenvalues:    24.6644    29.5407    41.8891
     74  H    Isotropic =    30.3754   Anisotropy =    11.0167
   XX=    32.6328   YX=    -2.9902   ZX=    -3.2155
   XY=    -2.6770   YY=    26.4890   ZY=     4.4889
   XZ=    -2.6565   YZ=     4.7002   ZZ=    32.0044
   Eigenvalues:    23.7485    29.6579    37.7198
     75  H    Isotropic =    31.1931   Anisotropy =    12.5084
   XX=    31.7230   YX=    -2.2696   ZX=     5.8810
   XY=    -1.8404   YY=    29.0654   ZY=    -4.3256
   XZ=     5.4471   YZ=    -2.9176   ZZ=    32.7908
   Eigenvalues:    26.0503    27.9969    39.5320
     76  H    Isotropic =    30.5683   Anisotropy =     8.1381
   XX=    31.5408   YX=     1.3553   ZX=    -1.2967
   XY=     2.2796   YY=    28.4441   ZY=    -4.0370
   XZ=    -1.9974   YZ=    -4.6079   ZZ=    31.7199
   Eigenvalues:    25.4029    30.3082    35.9937
     77  H    Isotropic =    30.4809   Anisotropy =    12.0733
   XX=    34.2989   YX=     4.5584   ZX=     3.1461
   XY=     4.5805   YY=    28.9482   ZY=     3.5996
   XZ=     2.2276   YZ=     3.2597   ZZ=    28.1955
   Eigenvalues:    24.9242    27.9887    38.5297
     78  H    Isotropic =    30.4935   Anisotropy =    12.1381
   XX=    36.2626   YX=    -4.0767   ZX=    -1.2108
   XY=    -4.4343   YY=    29.3862   ZY=     1.0303
   XZ=    -1.8029   YZ=     1.5789   ZZ=    25.8315
   Eigenvalues:    25.4022    27.4926    38.5855
     79  H    Isotropic =    31.7193   Anisotropy =    10.6556
   XX=    29.6388   YX=     1.4010   ZX=    -2.1740
   XY=     0.2072   YY=    27.0022   ZY=     1.2067
   XZ=    -0.5517   YZ=     1.2417   ZZ=    38.5169
   Eigenvalues:    26.5709    29.7640    38.8231
     80  H    Isotropic =    30.6192   Anisotropy =    15.1344
   XX=    31.5712   YX=     4.8492   ZX=     4.9292
   XY=     4.5991   YY=    31.9909   ZY=     5.0434
   XZ=     5.4699   YZ=     4.9858   ZZ=    28.2956
   Eigenvalues:    24.0769    27.0720    40.7089
     81  H    Isotropic =    30.8091   Anisotropy =    11.0405
   XX=    32.5437   YX=    -4.2253   ZX=     4.8208
   XY=    -4.4096   YY=    29.1489   ZY=     0.4513
   XZ=     5.7896   YZ=     0.2408   ZZ=    30.7348
   Eigenvalues:    24.1025    30.1555    38.1695
     82  H    Isotropic =    30.1298   Anisotropy =    11.9821
   XX=    28.0681   YX=     3.0460   ZX=     1.0797
   XY=    -0.1515   YY=    33.8627   ZY=    -5.9396
   XZ=     2.8852   YZ=    -6.8799   ZZ=    28.4586
   Eigenvalues:    23.0147    29.2569    38.1179
     83  H    Isotropic =    29.9693   Anisotropy =    11.7450
   XX=    28.1193   YX=    -2.7808   ZX=     0.2347
   XY=     0.6772   YY=    31.6293   ZY=     6.4439
   XZ=     2.0869   YZ=     7.2875   ZZ=    30.1594
   Eigenvalues:    23.4626    28.6462    37.7993
     84  H    Isotropic =    25.4951   Anisotropy =    15.2684
   XX=    29.5277   YX=     6.0063   ZX=     0.1193
   XY=     7.8107   YY=    27.5317   ZY=    -1.3519
   XZ=    -1.8813   YZ=    -1.5993   ZZ=    19.4259
   Eigenvalues:    19.1426    21.6687    35.6741
     85  H    Isotropic =    25.6628   Anisotropy =     6.0312
   XX=    26.4166   YX=     0.9306   ZX=     3.9577
   XY=     0.8705   YY=    26.1389   ZY=    -1.9337
   XZ=     4.1354   YZ=    -2.0705   ZZ=    24.4330
   Eigenvalues:    20.4551    26.8497    29.6836
     86  H    Isotropic =    26.5522   Anisotropy =     7.9139
   XX=    26.0031   YX=     2.8520   ZX=     2.9611
   XY=     2.3677   YY=    29.9456   ZY=    -3.6986
   XZ=     2.6026   YZ=    -3.1959   ZZ=    23.7078
   Eigenvalues:    19.9759    27.8526    31.8282
     87  H    Isotropic =    31.0440   Anisotropy =    13.2585
   XX=    39.2514   YX=     1.7511   ZX=    -0.0186
   XY=     2.2454   YY=    27.7595   ZY=    -0.5485
   XZ=    -3.8195   YZ=    -0.8733   ZZ=    26.1210
   Eigenvalues:    25.7424    27.5065    39.8829
     88  H    Isotropic =    32.1369   Anisotropy =    12.7329
   XX=    28.1544   YX=    -3.2833   ZX=     3.2073
   XY=    -1.6753   YY=    28.8930   ZY=     2.2376
   XZ=     3.9800   YZ=     2.3833   ZZ=    39.3633
   Eigenvalues:    24.7846    31.0006    40.6255
     89  H    Isotropic =    32.8996   Anisotropy =     9.0387
   XX=    35.7848   YX=     0.1073   ZX=    -5.1560
   XY=     2.7375   YY=    33.2696   ZY=    -2.5792
   XZ=    -3.9246   YZ=    -0.6888   ZZ=    29.6446
   Eigenvalues:    27.1294    32.6441    38.9255
     90  H    Isotropic =    32.5299   Anisotropy =    18.9196
   XX=    43.8080   YX=    -3.1693   ZX=    -3.8481
   XY=    -2.3209   YY=    26.4224   ZY=    -0.3774
   XZ=    -4.3240   YZ=     0.1865   ZZ=    27.3594
   Eigenvalues:    25.4888    26.9579    45.1430
     91  H    Isotropic =    32.2998   Anisotropy =    13.4646
   XX=    28.0628   YX=    -0.1942   ZX=     0.5397
   XY=    -0.2350   YY=    35.5634   ZY=     6.6636
   XZ=     0.3724   YZ=     6.8571   ZZ=    33.2731
   Eigenvalues:    27.2643    28.3589    41.2762
     92  H    Isotropic =    30.9408   Anisotropy =    12.8507
   XX=    38.6695   YX=     0.3238   ZX=     2.8892
   XY=    -1.6056   YY=    26.7526   ZY=    -2.1177
   XZ=     3.1381   YZ=    -1.1872   ZZ=    27.4004
   Eigenvalues:    25.2148    28.0997    39.5079
     93  H    Isotropic =    30.9671   Anisotropy =    13.9855
   XX=    25.2651   YX=    -0.5114   ZX=    -0.6548
   XY=    -0.9744   YY=    27.6569   ZY=    -2.6302
   XZ=     0.1639   YZ=    -1.3297   ZZ=    39.9794
   Eigenvalues:    25.0091    27.6015    40.2908
     94  H    Isotropic =    32.3717   Anisotropy =    17.4094
   XX=    27.3539   YX=    -3.5701   ZX=     2.0804
   XY=    -3.3738   YY=    38.2092   ZY=    -7.3011
   XZ=     1.9044   YZ=    -7.5471   ZZ=    31.5521
   Eigenvalues:    26.2956    26.8416    43.9780
     95  H    Isotropic =    32.6045   Anisotropy =    12.0622
   XX=    37.1815   YX=     3.5546   ZX=    -3.4452
   XY=     3.1761   YY=    30.2718   ZY=    -3.8782
   XZ=    -3.2305   YZ=    -3.8117   ZZ=    30.3603
   Eigenvalues:    26.4705    30.6971    40.6460
     96  H    Isotropic =    32.5567   Anisotropy =    15.4396
   XX=    41.5703   YX=    -3.2373   ZX=    -3.0072
   XY=    -3.3154   YY=    28.4259   ZY=    -1.1860
   XZ=    -3.2224   YZ=    -1.2287   ZZ=    27.6738
   Eigenvalues:    25.5369    29.2833    42.8498
     97  H    Isotropic =    32.4617   Anisotropy =    13.8085
   XX=    27.5007   YX=     1.7620   ZX=     1.3548
   XY=     1.0409   YY=    40.7292   ZY=     3.0346
   XZ=     0.9432   YZ=     3.0398   ZZ=    29.1551
   Eigenvalues:    26.9102    28.8075    41.6673
     98  H    Isotropic =    31.7302   Anisotropy =    11.3789
   XX=    26.5593   YX=     1.7455   ZX=    -2.3401
   XY=     1.2593   YY=    36.7713   ZY=     6.0295
   XZ=    -1.8475   YZ=     2.6714   ZZ=    31.8600
   Eigenvalues:    25.0232    30.8513    39.3162
     99  H    Isotropic =    32.8849   Anisotropy =    12.2404
   XX=    40.4287   YX=    -3.1199   ZX=     0.0528
   XY=    -2.5282   YY=    27.7776   ZY=     2.4859
   XZ=    -0.1631   YZ=     0.7397   ZZ=    30.4483
   Eigenvalues:    26.5458    31.0637    41.0451
    100  H    Isotropic =    31.5316   Anisotropy =     9.1888
   XX=    34.8646   YX=     2.9639   ZX=    -3.4391
   XY=     2.6398   YY=    29.7028   ZY=    -0.7016
   XZ=    -3.0064   YZ=    -1.8028   ZZ=    30.0273
   Eigenvalues:    28.3344    28.6029    37.6575
    101  H    Isotropic =    31.0720   Anisotropy =    15.3898
   XX=    27.1905   YX=    -2.8777   ZX=    -4.8272
   XY=    -1.1536   YY=    26.5334   ZY=     3.2067
   XZ=    -2.6253   YZ=     2.7877   ZZ=    39.4921
   Eigenvalues:    24.8179    27.0663    41.3319
    102  H    Isotropic =    31.6315   Anisotropy =    10.2461
   XX=    33.5921   YX=     2.2338   ZX=    -3.5680
   XY=     0.9044   YY=    27.5557   ZY=    -3.8971
   XZ=    -3.1800   YZ=    -3.8754   ZZ=    33.7467
   Eigenvalues:    25.6824    30.7499    38.4622
    103  H    Isotropic =    32.2044   Anisotropy =    14.3600
   XX=    30.6691   YX=     4.4815   ZX=     3.5301
   XY=     3.6940   YY=    38.8635   ZY=     3.0817
   XZ=     3.2769   YZ=     3.1893   ZZ=    27.0807
   Eigenvalues:    24.9961    29.8394    41.7778
    104  H    Isotropic =    31.1626   Anisotropy =    12.4514
   XX=    31.5350   YX=     1.5374   ZX=     6.0057
   XY=     1.3908   YY=    28.6869   ZY=     4.0955
   XZ=     5.8287   YZ=     2.3717   ZZ=    33.2659
   Eigenvalues:    25.8808    28.1435    39.4635
    105  H    Isotropic =    30.4840   Anisotropy =    12.2751
   XX=    34.1046   YX=    -4.1661   ZX=     4.0619
   XY=    -4.1585   YY=    28.0703   ZY=    -3.5977
   XZ=     3.0810   YZ=    -3.2798   ZZ=    29.2772
   Eigenvalues:    25.0232    27.7614    38.6675
    106  H    Isotropic =    30.6142   Anisotropy =     8.0250
   XX=    31.4045   YX=    -1.8445   ZX=    -0.8015
   XY=    -2.6028   YY=    30.3182   ZY=     4.2192
   XZ=    -1.4830   YZ=     4.7372   ZZ=    30.1199
   Eigenvalues:    25.6338    30.2447    35.9642
    107  H    Isotropic =    30.5527   Anisotropy =    11.7924
   XX=    36.2976   YX=     3.4561   ZX=    -1.7816
   XY=     3.8457   YY=    28.9350   ZY=    -1.6048
   XZ=    -2.4998   YZ=    -2.1926   ZZ=    26.4254
   Eigenvalues:    25.4008    27.8429    38.4143
    108  H    Isotropic =    30.8961   Anisotropy =    10.8208
   XX=    32.3062   YX=     3.9514   ZX=     4.8088
   XY=     4.2607   YY=    28.9973   ZY=    -0.6631
   XZ=     5.8952   YZ=    -0.2433   ZZ=    31.3849
   Eigenvalues:    24.1916    30.3869    38.1100
    109  H    Isotropic =    30.6618   Anisotropy =    14.9921
   XX=    30.7917   YX=    -4.6984   ZX=     4.6720
   XY=    -4.3375   YY=    32.6935   ZY=    -5.3451
   XZ=     5.2183   YZ=    -5.2299   ZZ=    28.5001
   Eigenvalues:    24.1440    27.1848    40.6566
    110  H    Isotropic =    31.8446   Anisotropy =    10.9232
   XX=    29.7701   YX=    -1.2310   ZX=    -2.8847
   XY=    -0.0255   YY=    27.2771   ZY=    -1.5128
   XZ=    -1.2903   YZ=    -1.6371   ZZ=    38.4867
   Eigenvalues:    26.7537    29.6535    39.1267
 End of Minotr F.D. properties file   721 does not exist.
 End of Minotr F.D. properties file   722 does not exist.
 End of Minotr F.D. properties file   788 does not exist.
 Hyperfine terms turned off by default for NAtoms > 100.

 **********************************************************************

            Population analysis using the SCF Density.

 **********************************************************************

 Orbital symmetries:
       Occupied  (A) (A) (A) (A) (A) (A) (A) (A) (A) (A) (A) (A)
                 (A) (A) (A) (A) (A) (A) (A) (A) (A) (A) (A) (A)
                 (A) (A) (A) (A) (A) (A) (A) (A) (A) (A) (A) (A)
                 (A) (A) (A) (A) (A) (A) (A) (A) (A) (A) (A) (A)
                 (A) (A) (A) (A) (A) (A) (A) (A) (A) (A) (A) (A)
                 (A) (A) (A) (A) (A) (A) (A) (A) (A) (A) (A) (A)
                 (A) (A) (A) (A) (A) (A) (A) (A) (A) (A) (A) (A)
                 (A) (A) (A) (A) (A) (A) (A) (A) (A) (A) (A) (A)
                 (A) (A) (A) (A) (A) (A) (A) (A) (A) (A) (A) (A)
                 (A) (A) (A) (A) (A) (A) (A) (A) (A) (A) (A) (A)
                 (A) (A) (A) (A) (A) (A) (A) (A) (A) (A) (A) (A)
                 (A) (A) (A) (A) (A) (A) (A) (A) (A) (A) (A) (A)
                 (A) (A) (A) (A) (A) (A) (A) (A) (A) (A) (A) (A)
                 (A) (A) (A) (A) (A) (A) (A) (A) (A) (A) (A) (A)
                 (A) (A) (A) (A) (A) (A) (A) (A) (A) (A) (A) (A)
                 (A) (A) (A) (A) (A) (A) (A) (A) (A) (A) (A) (A)
                 (A) (A) (A) (A) (A)
       Virtual   (A) (A) (A) (A) (A) (A) (A) (A) (A) (A) (A) (A)
                 (A) (A) (A) (A) (A) (A) (A) (A) (A) (A) (A) (A)
                 (A) (A) (A) (A) (A) (A) (A) (A) (A) (A) (A) (A)
                 (A) (A) (A) (A) (A) (A) (A) (A) (A) (A) (A) (A)
                 (A) (A) (A) (A) (A) (A) (A) (A) (A) (A) (A) (A)
                 (A) (A) (A) (A) (A) (A) (A) (A) (A) (A) (A) (A)
                 (A) (A) (A) (A) (A) (A) (A) (A) (A) (A) (A) (A)
                 (A) (A) (A) (A) (A) (A) (A) (A) (A) (A) (A) (A)
                 (A) (A) (A) (A) (A) (A) (A) (A) (A) (A) (A) (A)
                 (A) (A) (A) (A) (A) (A) (A) (A) (A) (A) (A) (A)
                 (A) (A) (A) (A) (A) (A) (A) (A) (A)
 The electronic state is 1-A.
 Alpha  occ. eigenvalues --  -20.31389 -20.29673 -20.25281 -20.23652 -19.91758
 Alpha  occ. eigenvalues --  -15.47947 -15.33895 -15.32684 -15.29875 -11.17311
 Alpha  occ. eigenvalues --  -11.15552 -11.11073 -11.10283 -11.09813 -11.09423
 Alpha  occ. eigenvalues --  -11.09281 -11.08835 -11.08557 -11.08277 -11.07441
 Alpha  occ. eigenvalues --  -11.07311 -11.07042 -11.06978 -11.06899 -11.06446
 Alpha  occ. eigenvalues --  -11.06301 -11.06289 -11.05921 -11.05738 -11.05576
 Alpha  occ. eigenvalues --  -11.05497 -11.05220 -11.05104 -11.04997 -11.04853
 Alpha  occ. eigenvalues --  -11.04767 -11.04673 -11.03874 -11.03829 -11.03791
 Alpha  occ. eigenvalues --  -11.03335 -11.03240 -11.03166 -11.02780 -11.01502
 Alpha  occ. eigenvalues --  -11.01461 -11.01396 -11.01300 -11.01124 -11.01073
 Alpha  occ. eigenvalues --  -11.01029 -11.00875 -11.00858 -11.00585  -1.38573
 Alpha  occ. eigenvalues --   -1.36942  -1.28477  -1.28324  -1.26626  -1.21395
 Alpha  occ. eigenvalues --   -1.20941  -1.18764  -1.12107  -1.08761  -1.08266
 Alpha  occ. eigenvalues --   -1.06992  -1.06385  -1.04474  -1.03437  -1.00843
 Alpha  occ. eigenvalues --   -0.99943  -0.98781  -0.98064  -0.97573  -0.96712
 Alpha  occ. eigenvalues --   -0.95865  -0.94774  -0.93873  -0.93272  -0.92359
 Alpha  occ. eigenvalues --   -0.91998  -0.91188  -0.90732  -0.89360  -0.87841
 Alpha  occ. eigenvalues --   -0.86397  -0.84726  -0.83113  -0.82421  -0.80875
 Alpha  occ. eigenvalues --   -0.80831  -0.79006  -0.78976  -0.78158  -0.76641
 Alpha  occ. eigenvalues --   -0.76450  -0.74587  -0.73545  -0.72548  -0.72391
 Alpha  occ. eigenvalues --   -0.71268  -0.70524  -0.69688  -0.68836  -0.67063
 Alpha  occ. eigenvalues --   -0.65981  -0.64701  -0.64235  -0.63830  -0.63071
 Alpha  occ. eigenvalues --   -0.62868  -0.61997  -0.61850  -0.61549  -0.61067
 Alpha  occ. eigenvalues --   -0.60616  -0.59928  -0.59669  -0.59224  -0.59084
 Alpha  occ. eigenvalues --   -0.58424  -0.57873  -0.57841  -0.57522  -0.57314
 Alpha  occ. eigenvalues --   -0.56922  -0.56528  -0.56140  -0.55931  -0.55658
 Alpha  occ. eigenvalues --   -0.55332  -0.54907  -0.54466  -0.53970  -0.53827
 Alpha  occ. eigenvalues --   -0.53617  -0.53255  -0.53127  -0.52641  -0.52446
 Alpha  occ. eigenvalues --   -0.52214  -0.51445  -0.51160  -0.50877  -0.50656
 Alpha  occ. eigenvalues --   -0.50233  -0.49951  -0.49763  -0.48985  -0.48672
 Alpha  occ. eigenvalues --   -0.48444  -0.48072  -0.47633  -0.47213  -0.47138
 Alpha  occ. eigenvalues --   -0.46728  -0.46382  -0.46195  -0.46029  -0.45751
 Alpha  occ. eigenvalues --   -0.45338  -0.45059  -0.44663  -0.44547  -0.43859
 Alpha  occ. eigenvalues --   -0.43410  -0.43287  -0.42944  -0.42793  -0.42469
 Alpha  occ. eigenvalues --   -0.42353  -0.41768  -0.41270  -0.41046  -0.40421
 Alpha  occ. eigenvalues --   -0.40150  -0.39766  -0.39138  -0.38858  -0.37721
 Alpha  occ. eigenvalues --   -0.37392  -0.36814  -0.35615  -0.35362  -0.34693
 Alpha  occ. eigenvalues --   -0.33931  -0.33249  -0.32429  -0.32361  -0.30962
 Alpha  occ. eigenvalues --   -0.27083  -0.26640  -0.25994  -0.21100  -0.19894
 Alpha  occ. eigenvalues --   -0.15650  -0.15472
 Alpha virt. eigenvalues --    0.27278   0.28201   0.28388   0.29043   0.29703
 Alpha virt. eigenvalues --    0.31515   0.46366   0.47196   0.49019   0.49396
 Alpha virt. eigenvalues --    0.49482   0.50182   0.50648   0.51334   0.52554
 Alpha virt. eigenvalues --    0.52805   0.54135   0.54543   0.55094   0.56371
 Alpha virt. eigenvalues --    0.56627   0.57836   0.58040   0.58348   0.58458
 Alpha virt. eigenvalues --    0.59060   0.59180   0.60225   0.60716   0.60899
 Alpha virt. eigenvalues --    0.61379   0.61895   0.62246   0.62551   0.62877
 Alpha virt. eigenvalues --    0.63156   0.63535   0.63967   0.64259   0.64367
 Alpha virt. eigenvalues --    0.64578   0.64807   0.65246   0.65487   0.65725
 Alpha virt. eigenvalues --    0.65934   0.66363   0.66640   0.67076   0.67153
 Alpha virt. eigenvalues --    0.67351   0.67578   0.67920   0.68827   0.68839
 Alpha virt. eigenvalues --    0.69024   0.69134   0.69434   0.69912   0.70116
 Alpha virt. eigenvalues --    0.70315   0.70431   0.70705   0.70884   0.71214
 Alpha virt. eigenvalues --    0.71316   0.71541   0.71952   0.72134   0.72332
 Alpha virt. eigenvalues --    0.72645   0.73282   0.73344   0.73531   0.73843
 Alpha virt. eigenvalues --    0.74042   0.74626   0.74742   0.74932   0.75222
 Alpha virt. eigenvalues --    0.75375   0.75531   0.75761   0.76110   0.76401
 Alpha virt. eigenvalues --    0.76751   0.76965   0.77127   0.77189   0.77382
 Alpha virt. eigenvalues --    0.77530   0.77853   0.78448   0.78558   0.79004
 Alpha virt. eigenvalues --    0.79609   0.79684   0.79947   0.80011   0.80219
 Alpha virt. eigenvalues --    0.81013   0.81363   0.81616   0.81787   0.82765
 Alpha virt. eigenvalues --    0.82955   0.83647   0.83829   0.83940   0.85198
 Alpha virt. eigenvalues --    0.85864   0.86255   0.86799   0.86983   0.88186
 Alpha virt. eigenvalues --    0.88469   0.89627   0.91418   0.92360   0.94490
 Alpha virt. eigenvalues --    0.95204   0.96211   0.98324   1.00658   1.02186
 Alpha virt. eigenvalues --    1.11051   1.12315   1.16228   1.16887
          Condensed to atoms (all electrons):
 Mulliken charges:
               1
     1  C   -0.076163
     2  C    0.002562
     3  C   -0.061439
     4  C   -0.088810
     5  C    0.089501
     6  C   -0.013240
     7  N   -0.282567
     8  C    0.015341
     9  C    0.129323
    10  C    0.041172
    11  C   -0.115906
    12  C   -0.107702
    13  C    0.040973
    14  N   -0.294091
    15  C   -0.011637
    16  C   -0.095754
    17  C   -0.100703
    18  C   -0.099330
    19  C   -0.013464
    20  C   -0.104127
    21  C   -0.064008
    22  C    0.318263
    23  O   -0.275524
    24  O   -0.255526
    25  C   -0.055181
    26  C   -0.079419
    27  C   -0.109806
    28  C   -0.002184
    29  C   -0.072709
    30  C   -0.062082
    31  C   -0.093020
    32  C    0.087916
    33  C   -0.015935
    34  N   -0.287594
    35  C    0.021278
    36  C    0.128706
    37  C    0.041098
    38  C   -0.115682
    39  C   -0.105524
    40  C    0.027924
    41  N   -0.085152
    42  C   -0.007689
    43  C   -0.110843
    44  C   -0.102688
    45  C   -0.106569
    46  C   -0.012153
    47  C   -0.111578
    48  C   -0.067234
    49  C    0.320405
    50  O   -0.278594
    51  O   -0.254148
    52  C   -0.055685
    53  C   -0.079100
    54  O   -0.454641
    55  H    0.057779
    56  H    0.055399
    57  H    0.058810
    58  H    0.040923
    59  H    0.049132
    60  H    0.063230
    61  H    0.046232
    62  H    0.048782
    63  H    0.036398
    64  H    0.061184
    65  H    0.047924
    66  H    0.056942
    67  H    0.042330
    68  H    0.051017
    69  H    0.065007
    70  H    0.058080
    71  H    0.039827
    72  H    0.061186
    73  H    0.047331
    74  H    0.079017
    75  H    0.063042
    76  H    0.073861
    77  H    0.076336
    78  H    0.070982
    79  H    0.056620
    80  H    0.070546
    81  H    0.074711
    82  H    0.058888
    83  H    0.063096
    84  H    0.093940
    85  H    0.055536
    86  H    0.056915
    87  H    0.084696
    88  H    0.052946
    89  H    0.057118
    90  H    0.053110
    91  H    0.051877
    92  H    0.088736
    93  H    0.080862
    94  H    0.065761
    95  H    0.057386
    96  H    0.056959
    97  H    0.057569
    98  H    0.082920
    99  H    0.071189
   100  H    0.067877
   101  H    0.089243
   102  H    0.066309
   103  H    0.055071
   104  H    0.067204
   105  H    0.079008
   106  H    0.075827
   107  H    0.073140
   108  H    0.075541
   109  H    0.073553
   110  H    0.055834
 Sum of Mulliken charges =  -0.00000
 Mulliken charges with hydrogens summed into heavy atoms:
               1
     1  C   -0.018385
     2  C    0.002562
     3  C   -0.006041
     4  C   -0.030001
     5  C    0.089501
     6  C   -0.013240
     7  N   -0.282567
     8  C    0.015341
     9  C    0.129323
    10  C    0.082095
    11  C   -0.003543
    12  C   -0.012688
    13  C    0.040973
    14  N   -0.294091
    15  C    0.085945
    16  C    0.009112
    17  C   -0.007355
    18  C    0.023758
    19  C    0.087548
    20  C    0.022221
    21  C   -0.000966
    22  C    0.318263
    23  O   -0.275524
    24  O   -0.255526
    25  C    0.165997
    26  C    0.122459
    27  C    0.012178
    28  C   -0.002184
    29  C    0.021231
    30  C   -0.006546
    31  C   -0.036104
    32  C    0.087916
    33  C   -0.015935
    34  N   -0.287594
    35  C    0.021278
    36  C    0.128706
    37  C    0.125793
    38  C   -0.005619
    39  C   -0.000537
    40  C    0.027924
    41  N   -0.085152
    42  C    0.161909
    43  C    0.012305
    44  C    0.011840
    45  C    0.047540
    46  C    0.144968
    47  C    0.009802
    48  C   -0.000030
    49  C    0.320405
    50  O   -0.278594
    51  O   -0.254148
    52  C    0.172290
    53  C    0.125827
    54  O   -0.454641
 Electronic spatial extent (au):  <R**2>=          34743.7861
 Charge=             -0.0000 electrons
 Dipole moment (field-independent basis, Debye):
    X=             -3.3727    Y=             -3.0911    Z=             -1.6260  Tot=              4.8553
 Quadrupole moment (field-independent basis, Debye-Ang):
   XX=           -285.2307   YY=           -294.4578   ZZ=           -303.3198
   XY=              8.5220   XZ=             16.2490   YZ=             -8.4798
 Traceless Quadrupole moment (field-independent basis, Debye-Ang):
   XX=              9.1054   YY=             -0.1217   ZZ=             -8.9837
   XY=              8.5220   XZ=             16.2490   YZ=             -8.4798
 Octapole moment (field-independent basis, Debye-Ang**2):
  XXX=            -94.6182  YYY=            -22.7007  ZZZ=             -8.4096  XYY=            -22.7098
  XXY=             28.3537  XXZ=             33.5856  XZZ=            -13.1139  YZZ=             -7.9941
  YYZ=             21.3507  XYZ=            -15.1730
 Hexadecapole moment (field-independent basis, Debye-Ang**3):
 XXXX=         -28014.6010 YYYY=          -7918.3639 ZZZZ=          -5118.3858 XXXY=             60.4351
 XXXZ=            625.6407 YYYX=             11.8674 YYYZ=            -19.0055 ZZZX=             20.9571
 ZZZY=            -57.7241 XXYY=          -6337.9378 XXZZ=          -5908.1708 YYZZ=          -2120.6246
 XXYZ=            -99.6271 YYXZ=             53.2143 ZZXY=             57.4985
 N-N= 8.290328800354D+03 E-N=-2.195714690164D+04  KE= 2.279153499265D+03
 ******************************Gaussian NBO Version 3.1******************************
             N A T U R A L   A T O M I C   O R B I T A L   A N D
          N A T U R A L   B O N D   O R B I T A L   A N A L Y S I S
 ******************************Gaussian NBO Version 3.1******************************
       /RESON  / : Allow strongly delocalized NBO set
       /NLMO   / : Form Natural Localized Molecular Orbitals
       /NMR /    : Analyze NMR Sheilding Tensor 

 Analyzing the SCF density

 Job title: pleiokomenine_C_1a                                              

 Storage needed:    355564 in NPA,    438187 in NBO,   2133784 in NLMO ( 104796000 available)
 GSVD:  LWork=     -108884 too small for GESVD, short by      536270 words or      536270 for optimal perf.


 NATURAL POPULATIONS:  Natural atomic orbital occupancies 
                                                          
   NAO  Atom  No  lang   Type(AO)    Occupancy      Energy
 ----------------------------------------------------------
     1    C    1  S      Cor( 1S)     1.99992     -10.93641
     2    C    1  S      Val( 2S)     1.07730      -0.16713
     3    C    1  px     Val( 2p)     0.99448       0.12005
     4    C    1  py     Val( 2p)     0.99220       0.11825
     5    C    1  pz     Val( 2p)     0.99560       0.10757
 
     6    C    2  S      Cor( 1S)     1.99990     -10.94728
     7    C    2  S      Val( 2S)     1.07983      -0.17468
     8    C    2  px     Val( 2p)     0.95547       0.14110
     9    C    2  py     Val( 2p)     0.96722       0.13862
    10    C    2  pz     Val( 2p)     0.97986       0.11816
 
    11    C    3  S      Cor( 1S)     1.99994     -10.93698
    12    C    3  S      Val( 2S)     1.08396      -0.17197
    13    C    3  px     Val( 2p)     0.97758       0.13444
    14    C    3  py     Val( 2p)     0.98417       0.12500
    15    C    3  pz     Val( 2p)     0.98829       0.10546
 
    16    C    4  S      Cor( 1S)     1.99993     -10.93108
    17    C    4  S      Val( 2S)     1.07187      -0.16283
    18    C    4  px     Val( 2p)     1.00384       0.12020
    19    C    4  py     Val( 2p)     0.99637       0.12558
    20    C    4  pz     Val( 2p)     1.01396       0.09803
 
    21    C    5  S      Cor( 1S)     1.99985     -10.97759
    22    C    5  S      Val( 2S)     1.06144      -0.17616
    23    C    5  px     Val( 2p)     0.89894       0.13313
    24    C    5  py     Val( 2p)     0.94422       0.14499
    25    C    5  pz     Val( 2p)     0.98261       0.09555
 
    26    C    6  S      Cor( 1S)     1.99990     -10.93848
    27    C    6  S      Val( 2S)     1.08388      -0.18025
    28    C    6  px     Val( 2p)     0.98260       0.13965
    29    C    6  py     Val( 2p)     0.97332       0.12505
    30    C    6  pz     Val( 2p)     0.98326       0.10344
 
    31    N    7  S      Cor( 1S)     1.99998     -15.25978
    32    N    7  S      Val( 2S)     1.41199      -0.58720
    33    N    7  px     Val( 2p)     1.45279      -0.11925
    34    N    7  py     Val( 2p)     1.12058      -0.00027
    35    N    7  pz     Val( 2p)     1.28607      -0.05482
 
    36    C    8  S      Cor( 1S)     1.99996     -10.99835
    37    C    8  S      Val( 2S)     1.10640      -0.22290
    38    C    8  px     Val( 2p)     0.97996       0.07733
    39    C    8  py     Val( 2p)     0.95107       0.11860
    40    C    8  pz     Val( 2p)     0.94727       0.12071
 
    41    C    9  S      Cor( 1S)     1.99996     -11.04148
    42    C    9  S      Val( 2S)     1.11353      -0.24838
    43    C    9  px     Val( 2p)     0.92071       0.09364
    44    C    9  py     Val( 2p)     0.86222       0.13578
    45    C    9  pz     Val( 2p)     0.93031       0.09335
 
    46    C   10  S      Cor( 1S)     1.99994     -11.00902
    47    C   10  S      Val( 2S)     1.09278      -0.20909
    48    C   10  px     Val( 2p)     0.97893       0.10450
    49    C   10  py     Val( 2p)     0.97264       0.08939
    50    C   10  pz     Val( 2p)     0.88212       0.11025
 
    51    C   11  S      Cor( 1S)     1.99993     -10.96913
    52    C   11  S      Val( 2S)     1.10508      -0.20469
    53    C   11  px     Val( 2p)     0.99485       0.09502
    54    C   11  py     Val( 2p)     0.99765       0.09337
    55    C   11  pz     Val( 2p)     0.98834       0.09659
 
    56    C   12  S      Cor( 1S)     1.99996     -10.96965
    57    C   12  S      Val( 2S)     1.08835      -0.18927
    58    C   12  px     Val( 2p)     1.00516       0.09605
    59    C   12  py     Val( 2p)     0.99643       0.09708
    60    C   12  pz     Val( 2p)     0.98785       0.09431
 
    61    C   13  S      Cor( 1S)     1.99998     -10.99886
    62    C   13  S      Val( 2S)     1.10012      -0.21603
    63    C   13  px     Val( 2p)     0.94417       0.11547
    64    C   13  py     Val( 2p)     0.94903       0.11255
    65    C   13  pz     Val( 2p)     0.94415       0.11814
 
    66    N   14  S      Cor( 1S)     1.99999     -15.22931
    67    N   14  S      Val( 2S)     1.41403      -0.57300
    68    N   14  px     Val( 2p)     1.58271      -0.15999
    69    N   14  py     Val( 2p)     1.23224      -0.01944
    70    N   14  pz     Val( 2p)     1.05528       0.04346
 
    71    C   15  S      Cor( 1S)     1.99994     -11.00824
    72    C   15  S      Val( 2S)     1.06911      -0.18802
    73    C   15  px     Val( 2p)     0.95360       0.10764
    74    C   15  py     Val( 2p)     0.95131       0.08722
    75    C   15  pz     Val( 2p)     0.98291       0.08816
 
    76    C   16  S      Cor( 1S)     1.99996     -10.97723
    77    C   16  S      Val( 2S)     1.08432      -0.19069
    78    C   16  px     Val( 2p)     1.02176       0.09161
    79    C   16  py     Val( 2p)     0.97978       0.09716
    80    C   16  pz     Val( 2p)     0.97298       0.09972
 
    81    C   17  S      Cor( 1S)     1.99995     -10.97817
    82    C   17  S      Val( 2S)     1.08997      -0.19532
    83    C   17  px     Val( 2p)     1.00122       0.09318
    84    C   17  py     Val( 2p)     0.99902       0.09207
    85    C   17  pz     Val( 2p)     0.97424       0.09646
 
    86    C   18  S      Cor( 1S)     1.99994     -10.97068
    87    C   18  S      Val( 2S)     1.09318      -0.19128
    88    C   18  px     Val( 2p)     1.00373       0.09994
    89    C   18  py     Val( 2p)     1.01382       0.09967
    90    C   18  pz     Val( 2p)     0.95575       0.09352
 
    91    C   19  S      Cor( 1S)     1.99995     -11.00139
    92    C   19  S      Val( 2S)     1.07134      -0.18502
    93    C   19  px     Val( 2p)     0.99624       0.08719
    94    C   19  py     Val( 2p)     0.89818       0.11437
    95    C   19  pz     Val( 2p)     0.99373       0.09029
 
    96    C   20  S      Cor( 1S)     1.99992     -10.97524
    97    C   20  S      Val( 2S)     1.10173      -0.20351
    98    C   20  px     Val( 2p)     0.96551       0.09639
    99    C   20  py     Val( 2p)     0.97551       0.09982
   100    C   20  pz     Val( 2p)     1.02379       0.09273
 
   101    C   21  S      Cor( 1S)     1.99994     -11.00127
   102    C   21  S      Val( 2S)     1.11371      -0.23316
   103    C   21  px     Val( 2p)     0.96765       0.09118
   104    C   21  py     Val( 2p)     0.99159       0.07649
   105    C   21  pz     Val( 2p)     1.00748       0.07470
 
   106    C   22  S      Cor( 1S)     1.99991     -11.10271
   107    C   22  S      Val( 2S)     1.05615      -0.25219
   108    C   22  px     Val( 2p)     0.88825       0.08634
   109    C   22  py     Val( 2p)     0.83794       0.04932
   110    C   22  pz     Val( 2p)     0.81693       0.16689
 
   111    O   23  S      Cor( 1S)     1.99999     -20.08905
   112    O   23  S      Val( 2S)     1.80838      -1.04845
   113    O   23  px     Val( 2p)     1.75117      -0.27732
   114    O   23  py     Val( 2p)     1.41120      -0.16594
   115    O   23  pz     Val( 2p)     1.33890      -0.10753
 
   116    O   24  S      Cor( 1S)     1.99999     -20.20610
   117    O   24  S      Val( 2S)     1.72944      -1.01848
   118    O   24  px     Val( 2p)     1.27940      -0.11410
   119    O   24  py     Val( 2p)     1.66206      -0.28108
   120    O   24  pz     Val( 2p)     1.59634      -0.26205
 
   121    C   25  S      Cor( 1S)     1.99984     -11.03844
   122    C   25  S      Val( 2S)     1.07659      -0.21976
   123    C   25  px     Val( 2p)     0.86172       0.08151
   124    C   25  py     Val( 2p)     1.02307       0.04822
   125    C   25  pz     Val( 2p)     1.00357       0.05522
 
   126    C   26  S      Cor( 1S)     1.99992     -11.00560
   127    C   26  S      Val( 2S)     1.06549      -0.18656
   128    C   26  px     Val( 2p)     1.01418       0.07186
   129    C   26  py     Val( 2p)     1.05014       0.05856
   130    C   26  pz     Val( 2p)     0.88748       0.11211
 
   131    C   27  S      Cor( 1S)     1.99995     -10.97552
   132    C   27  S      Val( 2S)     1.08435      -0.18151
   133    C   27  px     Val( 2p)     0.97175       0.11212
   134    C   27  py     Val( 2p)     1.00350       0.09278
   135    C   27  pz     Val( 2p)     1.02705       0.09227
 
   136    C   28  S      Cor( 1S)     1.99990     -10.94813
   137    C   28  S      Val( 2S)     1.08019      -0.17699
   138    C   28  px     Val( 2p)     0.96200       0.13071
   139    C   28  py     Val( 2p)     0.96874       0.13938
   140    C   28  pz     Val( 2p)     0.97806       0.11924
 
   141    C   29  S      Cor( 1S)     1.99993     -10.93605
   142    C   29  S      Val( 2S)     1.08672      -0.17038
   143    C   29  px     Val( 2p)     0.98970       0.11637
   144    C   29  py     Val( 2p)     0.98008       0.12743
   145    C   29  pz     Val( 2p)     0.99486       0.11176
 
   146    C   30  S      Cor( 1S)     1.99994     -10.94234
   147    C   30  S      Val( 2S)     1.08435      -0.17728
   148    C   30  px     Val( 2p)     0.98002       0.12126
   149    C   30  py     Val( 2p)     0.98183       0.12367
   150    C   30  pz     Val( 2p)     0.98663       0.10314
 
   151    C   31  S      Cor( 1S)     1.99993     -10.93571
   152    C   31  S      Val( 2S)     1.07086      -0.16848
   153    C   31  px     Val( 2p)     1.00857       0.10771
   154    C   31  py     Val( 2p)     0.99469       0.12356
   155    C   31  pz     Val( 2p)     1.01753       0.09343
 
   156    C   32  S      Cor( 1S)     1.99985     -10.98503
   157    C   32  S      Val( 2S)     1.05962      -0.18219
   158    C   32  px     Val( 2p)     0.89907       0.12229
   159    C   32  py     Val( 2p)     0.94817       0.13732
   160    C   32  pz     Val( 2p)     0.98154       0.08938
 
   161    C   33  S      Cor( 1S)     1.99990     -10.94303
   162    C   33  S      Val( 2S)     1.08171      -0.18389
   163    C   33  px     Val( 2p)     0.99248       0.12504
   164    C   33  py     Val( 2p)     0.96991       0.12286
   165    C   33  pz     Val( 2p)     0.98685       0.10332
 
   166    N   34  S      Cor( 1S)     1.99998     -15.27098
   167    N   34  S      Val( 2S)     1.40407      -0.59666
   168    N   34  px     Val( 2p)     1.48311      -0.14555
   169    N   34  py     Val( 2p)     1.12503      -0.01451
   170    N   34  pz     Val( 2p)     1.26402      -0.05881
 
   171    C   35  S      Cor( 1S)     1.99996     -11.02009
   172    C   35  S      Val( 2S)     1.11082      -0.24511
   173    C   35  px     Val( 2p)     0.96963       0.06521
   174    C   35  py     Val( 2p)     0.95527       0.09704
   175    C   35  pz     Val( 2p)     0.94166       0.10227
 
   176    C   36  S      Cor( 1S)     1.99996     -11.05826
   177    C   36  S      Val( 2S)     1.11193      -0.26408
   178    C   36  px     Val( 2p)     0.92450       0.07842
   179    C   36  py     Val( 2p)     0.85944       0.11722
   180    C   36  pz     Val( 2p)     0.93260       0.07340
 
   181    C   37  S      Cor( 1S)     1.99991     -11.04196
   182    C   37  S      Val( 2S)     1.12088      -0.26336
   183    C   37  px     Val( 2p)     1.01545       0.05716
   184    C   37  py     Val( 2p)     0.97506       0.05751
   185    C   37  pz     Val( 2p)     0.81531       0.09892
 
   186    C   38  S      Cor( 1S)     1.99994     -10.98896
   187    C   38  S      Val( 2S)     1.10444      -0.22400
   188    C   38  px     Val( 2p)     1.00023       0.07342
   189    C   38  py     Val( 2p)     0.98812       0.07626
   190    C   38  pz     Val( 2p)     0.99345       0.07583
 
   191    C   39  S      Cor( 1S)     1.99995     -10.99091
   192    C   39  S      Val( 2S)     1.09168      -0.21273
   193    C   39  px     Val( 2p)     1.01131       0.07515
   194    C   39  py     Val( 2p)     0.99342       0.07686
   195    C   39  pz     Val( 2p)     0.97726       0.07562
 
   196    C   40  S      Cor( 1S)     1.99998     -11.02543
   197    C   40  S      Val( 2S)     1.10490      -0.24829
   198    C   40  px     Val( 2p)     0.94543       0.08758
   199    C   40  py     Val( 2p)     0.94355       0.08929
   200    C   40  pz     Val( 2p)     0.95630       0.08062
 
   201    N   41  S      Cor( 1S)     1.99999     -15.41792
   202    N   41  S      Val( 2S)     1.40106      -0.66091
   203    N   41  px     Val( 2p)     1.20533      -0.11294
   204    N   41  py     Val( 2p)     1.21787      -0.11978
   205    N   41  pz     Val( 2p)     1.14879      -0.09892
 
   206    C   42  S      Cor( 1S)     1.99991     -11.03558
   207    C   42  S      Val( 2S)     1.08951      -0.23265
   208    C   42  px     Val( 2p)     1.02480       0.04383
   209    C   42  py     Val( 2p)     0.85680       0.10048
   210    C   42  pz     Val( 2p)     0.98547       0.05421
 
   211    C   43  S      Cor( 1S)     1.99997     -10.99965
   212    C   43  S      Val( 2S)     1.07884      -0.21044
   213    C   43  px     Val( 2p)     1.02083       0.06553
   214    C   43  py     Val( 2p)     0.99515       0.06577
   215    C   43  pz     Val( 2p)     0.98647       0.06888
 
   216    C   44  S      Cor( 1S)     1.99996     -10.99690
   217    C   44  S      Val( 2S)     1.08460      -0.21122
   218    C   44  px     Val( 2p)     1.01585       0.06870
   219    C   44  py     Val( 2p)     0.99619       0.07120
   220    C   44  pz     Val( 2p)     0.97369       0.07584
 
   221    C   45  S      Cor( 1S)     1.99994     -10.98945
   222    C   45  S      Val( 2S)     1.09338      -0.20973
   223    C   45  px     Val( 2p)     1.02240       0.08088
   224    C   45  py     Val( 2p)     1.00972       0.07290
   225    C   45  pz     Val( 2p)     0.95552       0.08201
 
   226    C   46  S      Cor( 1S)     1.99992     -11.02832
   227    C   46  S      Val( 2S)     1.09091      -0.22707
   228    C   46  px     Val( 2p)     0.84800       0.09439
   229    C   46  py     Val( 2p)     0.99954       0.06036
   230    C   46  pz     Val( 2p)     1.02320       0.05184
 
   231    C   47  S      Cor( 1S)     1.99992     -10.99782
   232    C   47  S      Val( 2S)     1.09912      -0.22563
   233    C   47  px     Val( 2p)     0.96988       0.07149
   234    C   47  py     Val( 2p)     0.98801       0.06845
   235    C   47  pz     Val( 2p)     1.01835       0.06790
 
   236    C   48  S      Cor( 1S)     1.99995     -11.01719
[...]
  105       1.3556        0.4232       0.9324         0.3253       1.0304
  106      26.0713       -0.1147      26.1860         0.4358      25.6355
  107       1.7386        3.6929      -1.9543        -0.0698       1.8083
 Sum       30.7089        5.1009      25.6080         0.2832      30.4257

 Contributions to Isotropic shielding for atom   95 (    32.6045 ppm):
                         Standard Origin              Atomic Origin
 NLMO      Total    Paramagnetic  Diamagnetic   Paramagnetic  Diamagnetic
   98      -0.1543        0.4514      -0.6057        -1.2284       1.0741
  100      -0.2101        0.4505      -0.6605        -1.0066       0.7965
  102       1.1738        0.8714       0.3024         0.3700       0.8038
  105       1.2375        0.4552       0.7823         0.3515       0.8860
  106       2.0139        3.8555      -1.8417         0.1841       1.8298
  107      26.3681       -0.2432      26.6113         0.5217      25.8463
  113      -0.1774       -1.2664       1.0890        -0.3181       0.1407
  116      -0.3261       -1.6818       1.3556        -0.6380       0.3119
 Sum       29.9254        2.8925      27.0328        -1.7637      31.6891

 Contributions to Isotropic shielding for atom   96 (    32.5567 ppm):
                         Standard Origin              Atomic Origin
 NLMO      Total    Paramagnetic  Diamagnetic   Paramagnetic  Diamagnetic
   97       2.0190       -1.6503       3.6693         1.2098       0.8092
  102       0.2513       -1.4272       1.6785        -0.5360       0.7872
  105       1.3237        0.4754       0.8483         0.4408       0.8829
  106       0.0939       -1.0182       1.1121        -0.8193       0.9132
  108      26.1113        0.5177      25.5935         0.3141      25.7972
  109       1.7664        1.5164       0.2500        -0.0246       1.7911
 Sum       31.5655       -1.5863      33.1518         0.5848      30.9808

 Contributions to Isotropic shielding for atom   97 (    32.4617 ppm):
                         Standard Origin              Atomic Origin
 NLMO      Total    Paramagnetic  Diamagnetic   Paramagnetic  Diamagnetic
   97       1.1978        0.7582       0.4396         0.4283       0.7695
   98      -0.2112        0.9175      -1.1286        -1.2600       1.0489
  105       0.4731        3.1350      -2.6619        -0.4758       0.9489
  108       2.3110        0.6123       1.6987         0.5368       1.7742
  109      26.3558       -0.1748      26.5306         0.5722      25.7835
  117      -0.0435       -1.4368       1.3932        -0.8926       0.8491
 Sum       30.0830        3.8113      26.2716        -1.0912      31.1742

 Contributions to Isotropic shielding for atom   98 (    31.7302 ppm):
                         Standard Origin              Atomic Origin
 NLMO      Total    Paramagnetic  Diamagnetic   Paramagnetic  Diamagnetic
   71      -0.8281        0.0593      -0.8873        -1.9369       1.1088
   80      -0.1366        0.8862      -1.0228        -1.2295       1.0929
   85       2.0066       -1.5391       3.5456         1.1676       0.8389
   89      -0.0977        0.1130      -0.2107        -1.0311       0.9334
  100       0.5087       -0.8210       1.3297        -0.1420       0.6507
  111      25.6707        0.1152      25.5555         0.5371      25.1337
  112       1.6518        2.5026      -0.8508        -0.3566       2.0084
  114      -0.0714       -0.7886       0.7171        -1.1660       1.0945
  121       0.0442       -1.0219       1.0661        -0.7486       0.7928
 Sum       28.7482       -0.4942      29.2424        -4.9061      33.6543

 Contributions to Isotropic shielding for atom   99 (    32.8849 ppm):
                         Standard Origin              Atomic Origin
 NLMO      Total    Paramagnetic  Diamagnetic   Paramagnetic  Diamagnetic
   83      -0.3839        1.2058      -1.5897        -0.9908       0.6068
   85       1.2477        0.0373       1.2104         0.5177       0.7300
   87      -0.3065       -0.0571      -0.2494        -1.1435       0.8370
   89      -0.2260        0.2904      -0.5164        -1.1448       0.9188
  100       0.4177       -0.6796       1.0972         0.3738       0.0439
  110       0.3778        2.3732      -1.9954        -0.2822       0.6600
  111       2.0015        2.5153      -0.5138         0.0686       1.9328
  112      26.0537       -0.1663      26.2199         0.5740      25.4796
  118       0.6809       -1.0834       1.7643        -0.1414       0.8223
  120       1.3351       -0.4413       1.7763         0.4210       0.9141
  121      -0.3079       -3.1205       2.8126        -1.2805       0.9726
  123       0.3266       -0.8584       1.1850        -0.4377       0.7642
  125       0.0484       -1.7298       1.7782        -0.4444       0.4928
  191      -0.5137        1.2014      -1.7150         0.3481      -0.8618
 Sum       30.7514       -0.5128      31.2641        -3.5618      34.3132

 Contributions to Isotropic shielding for atom  100 (    31.5316 ppm):
                         Standard Origin              Atomic Origin
 NLMO      Total    Paramagnetic  Diamagnetic   Paramagnetic  Diamagnetic
   99      -0.5165        1.1525      -1.6690        -1.4163       0.8998
  100       1.1300       -0.6552       1.7852         0.5461       0.5839
  107      -0.2500       -1.5496       1.2996        -0.7799       0.5299
  113      26.5619        0.3057      26.2561         1.0045      25.5574
  114       1.3112        2.4261      -1.1149        -0.5925       1.9037
  116      -0.4738       -2.3183       1.8445        -0.5025       0.0287
  120       0.6621       -0.6422       1.3043         0.2429       0.4192
  121       0.2472       -2.1470       2.3943        -0.7297       0.9769
  191      -0.6668        1.2565      -1.9233         0.2284      -0.8952
 Sum       28.0053       -2.1715      30.1768        -1.9989      30.0042

 Contributions to Isotropic shielding for atom  101 (    31.0720 ppm):
                         Standard Origin              Atomic Origin
 NLMO      Total    Paramagnetic  Diamagnetic   Paramagnetic  Diamagnetic
   99      -0.4697        0.8128      -1.2825        -1.1410       0.6713
  100       1.1523       -0.5210       1.6733         0.2870       0.8653
  101       0.0357        0.9673      -0.9316        -0.9853       1.0210
  111      -0.0472        0.2094      -0.2565        -1.2231       1.1759
  113       1.1084        2.1398      -1.0314        -0.6448       1.7532
  114      25.8526        0.4484      25.4042         0.9564      24.8962
  121       0.0582       -1.0134       1.0716        -0.5600       0.6183
  195       0.3670       -1.1754       1.5425         1.1917      -0.8247
 Sum       28.0573        1.8678      26.1895        -2.1190      30.1763

 Contributions to Isotropic shielding for atom  102 (    31.6315 ppm):
                         Standard Origin              Atomic Origin
 NLMO      Total    Paramagnetic  Diamagnetic   Paramagnetic  Diamagnetic
   87       0.3238       -0.9265       1.2503         0.0388       0.2850
   97      -0.2315        1.1300      -1.3614        -0.9580       0.7266
   98       1.7458       -1.0299       2.7758         0.8116       0.9343
  105      -0.0960        0.1425      -0.2385        -1.0323       0.9363
  107      -0.3667       -2.0794       1.7127        -0.7279       0.3612
  113      -0.4019       -1.9548       1.5529        -0.2601      -0.1419
  115       0.4499        2.0081      -1.5582        -0.4024       0.8523
  116      26.2575       -0.1884      26.4460         0.6216      25.6359
  117       1.6244        3.3246      -1.7002        -0.2855       1.9099
  118       0.0413       -0.0198       0.0612        -1.0537       1.0951
  120       0.4617       -1.6018       2.0634        -0.4172       0.8789
  121       0.6051       -2.4771       3.0823        -1.1010       1.7062
  191      -0.7267        1.0724      -1.7991         0.1813      -0.9080
 Sum       29.6868       -2.6003      32.2871        -4.5848      34.2716

 Contributions to Isotropic shielding for atom  103 (    32.2045 ppm):
                         Standard Origin              Atomic Origin
 NLMO      Total    Paramagnetic  Diamagnetic   Paramagnetic  Diamagnetic
   87       0.3853       -0.8515       1.2368         0.1789       0.2064
   94      -0.1801        1.2201      -1.4001        -1.0356       0.8556
   97      -0.2159        1.3054      -1.5213        -1.0314       0.8155
   98       1.9202       -0.5877       2.5079         0.9318       0.9883
  115       0.4975        2.3892      -1.8917        -0.5695       1.0671
  116       1.6515        2.9770      -1.3255        -0.2487       1.9003
  117      26.4466       -0.3616      26.8081         0.6140      25.8325
  119      -0.1706       -0.7064       0.5359        -1.3224       1.1518
  121       0.2509       -0.8473       1.0982        -0.7778       1.0287
 Sum       30.5855        4.5372      26.0482        -3.2607      33.8462

 Contributions to Isotropic shielding for atom  104 (    31.1626 ppm):
                         Standard Origin              Atomic Origin
 NLMO      Total    Paramagnetic  Diamagnetic   Paramagnetic  Diamagnetic
   81      -0.4705        1.2243      -1.6947        -1.1738       0.7033
   86      -0.3398        1.3544      -1.6941        -1.4475       1.1078
   87       2.0786       -0.5106       2.5892         1.1437       0.9349
   98       0.2790       -0.8067       1.0858         0.0654       0.2136
  115       1.3639        1.0900       0.2739         0.2402       1.1237
  117      -0.2469        0.0002      -0.2471        -1.4159       1.1690
  118       0.0369        4.6700      -4.6330        -0.8534       0.8903
  119      25.9413       -0.5847      26.5260         0.4313      25.5101
  122       0.9765       -2.2023       3.1788        -0.6971       1.6737
  125       0.1520       -0.9059       1.0579        -0.2999       0.4519
  127      -0.2405       -2.0825       1.8420        -0.6567       0.4162
  193      -0.8584        0.4055      -1.2639         0.1446      -1.0029
 Sum       28.6723        1.6516      27.0207        -4.5193      33.1916

 Contributions to Isotropic shielding for atom  105 (    30.4840 ppm):
                         Standard Origin              Atomic Origin
 NLMO      Total    Paramagnetic  Diamagnetic   Paramagnetic  Diamagnetic
  120      -0.6707        0.3230      -0.9937        -1.2912       0.6205
  121      -0.1430        1.1068      -1.2498        -1.1737       1.0308
  122      -0.5827        0.4758      -1.0585        -0.6185       0.0358
  123       1.0971        0.6495       0.4475        -0.9778       2.0749
  124      26.0088        0.3715      25.6372         0.8411      25.1676
  125       1.2269        1.4259      -0.1990        -0.7689       1.9958
  126       0.5579        3.8563      -3.2984        -1.4277       1.9857
  191       0.2553       -0.7697       1.0250         0.6346      -0.3793
  193       1.0600       -0.9679       2.0279         1.5290      -0.4689
  194       1.0446        0.4837       0.5609         0.7881       0.2565
 Sum       29.8542        6.9550      22.8992        -2.4651      32.3193

 Contributions to Isotropic shielding for atom  106 (    30.6142 ppm):
                         Standard Origin              Atomic Origin
 NLMO      Total    Paramagnetic  Diamagnetic   Paramagnetic  Diamagnetic
  120      -0.9749        0.6955      -1.6704        -1.8820       0.9071
  121      -0.4556        1.5247      -1.9804        -1.9817       1.5261
  122      -1.4542        1.5188      -2.9730        -2.3042       0.8500
  123       2.7946       -4.7985       7.5930         1.3810       1.4136
  124       1.4443        2.0109      -0.5666        -0.6009       2.0452
  125      26.1752        0.9917      25.1834         1.0185      25.1567
  126       1.0839        1.7784      -0.6945        -0.7914       1.8753
  191       0.3661       -1.1375       1.5036         1.1329      -0.7668
  193       0.9657       -0.0538       1.0195         1.0162      -0.0505
 Sum       29.9449        2.5302      27.4148        -3.0117      32.9567

 Contributions to Isotropic shielding for atom  107 (    30.5527 ppm):
                         Standard Origin              Atomic Origin
 NLMO      Total    Paramagnetic  Diamagnetic   Paramagnetic  Diamagnetic
  120      -1.3560        0.9649      -2.3210        -2.2496       0.8935
  121      -0.5717        2.2196      -2.7914        -2.1325       1.5608
  122      -2.0138        1.5272      -3.5410        -2.7972       0.7834
  123       1.4320       -0.2342       1.6663        -0.0333       1.4653
  124       1.1639        4.4529      -3.2891        -0.8788       2.0426
  125       1.3497        1.2615       0.0882        -0.5226       1.8723
  126      26.4979        0.6682      25.8297         1.2702      25.2277
  191       0.6163       -1.6940       2.3102         1.3899      -0.7736
  192       0.8086        1.0082      -0.1996         1.0318      -0.2232
  193       1.5664       -1.1845       2.7508         1.6268      -0.0604
  194       0.5183        1.0626      -0.5443         0.0457       0.4727
 Sum       30.0114       10.0526      19.9589        -3.2496      33.2610

 Contributions to Isotropic shielding for atom  108 (    30.8962 ppm):
                         Standard Origin              Atomic Origin
 NLMO      Total    Paramagnetic  Diamagnetic   Paramagnetic  Diamagnetic
   76      -0.4705       -0.0692      -0.4013        -1.3292       0.8587
   81      -0.4052        0.7776      -1.1827        -1.1229       0.7177
   82       1.1931       -0.1827       1.3758         0.0082       1.1849
   87      -0.1983        0.8891      -1.0874        -1.0832       0.8849
  118      -0.3241        0.4705      -0.7946        -1.0480       0.7239
  122       1.0859       -1.0836       2.1695         0.4934       0.5925
  124       0.0686       -1.2244       1.2931        -0.6498       0.7185
  127      25.9997        0.2185      25.7812         0.6468      25.3529
  128       1.4928        3.7355      -2.2426        -0.4929       1.9858
  129       1.7395        0.5532       1.1863        -0.0922       1.8317
  193      -1.0265        0.5232      -1.5498         0.2616      -1.2881
 Sum       29.1552        4.6077      24.5475        -4.4081      33.5633

 Contributions to Isotropic shielding for atom  109 (    30.6618 ppm):
                         Standard Origin              Atomic Origin
 NLMO      Total    Paramagnetic  Diamagnetic   Paramagnetic  Diamagnetic
   75      -0.5421        0.5889      -1.1309        -1.2554       0.7133
   76      -0.8454        0.1633      -1.0087        -2.2065       1.3611
   79      -0.4485        0.6831      -1.1316        -1.0673       0.6188
   82       1.1515        0.5709       0.5807        -0.1029       1.2544
  122       0.6583       -0.5092       1.1675         0.3538       0.3046
  124       0.0090       -1.1708       1.1797        -0.6088       0.6178
  127       1.5483        3.6741      -2.1259        -0.4213       1.9696
  128      26.0338        0.1133      25.9205         0.7083      25.3254
  129       1.7048        1.0485       0.6564        -0.0906       1.7955
 Sum       29.2697        5.1621      24.1077        -4.6908      33.9605

 Contributions to Isotropic shielding for atom  110 (    31.8446 ppm):
                         Standard Origin              Atomic Origin
 NLMO      Total    Paramagnetic  Diamagnetic   Paramagnetic  Diamagnetic
   76      -0.6952       -0.2113      -0.4839        -1.9112       1.2160
   79      -0.3700        0.5381      -0.9081        -1.0172       0.6473
   82       1.9822       -3.0299       5.0122         1.2119       0.7703
   86      -0.1918        0.5376      -0.7294        -1.2222       1.0304
  122       0.5134       -0.5652       1.0785        -0.0657       0.5791
  127       1.8304        1.2928       0.5376        -0.0865       1.9169
  128       1.8141        2.0416      -0.2274        -0.0820       1.8962
  129      26.4085        0.8044      25.6042         0.7107      25.6978
 Sum       31.2917        1.4081      29.8837        -2.4622      33.7540
 
 1\1\GINC-PCSN02\SP\RHF\STO-3G\C45H56N4O5\ABENIDD\30-May-2024\0\\# nmr=
 giao hf/sto-3g pop=nbo geom=connectivity\\pleiokomenine_C_1a\\0,1\C,0,
 0.,0.,0.\C,0,1.4025,0.,0.\C,0,2.089,1.2344,0.\C,0,1.4036,2.4548,-0.064
 2\C,0,0.0236,2.4398,-0.1497\C,0,-0.6647,1.2115,-0.1012\N,0,-0.8611,3.5
 445,-0.3276\C,0,-2.1443,1.4993,-0.1378\C,0,-2.0604,2.8737,-0.8965\C,0,
 -3.1174,0.5839,-0.8839\C,0,-1.7939,2.6009,-2.4499\C,0,-2.8865,1.7299,-
 3.0715\C,0,-3.8967,1.3334,-1.9895\N,0,-4.1045,0.2112,0.1294\C,0,-4.973
 1,-0.8578,-0.3035\C,0,-5.8169,-0.3084,-1.4664\C,0,-4.979,0.3846,-2.557
 2\C,0,-2.613,1.4116,1.3377\C,0,-3.4062,0.1031,1.3881\C,0,-4.5078,2.664
 ,-1.4242\C,0,-3.4034,3.634,-0.8887\C,0,-3.8099,4.3143,0.4086\O,0,-4.82
 06,4.0619,1.053\O,0,-2.9501,5.3254,0.7162\C,0,-3.2486,5.9993,1.938\C,0
 ,-0.2986,4.7303,-0.9558\C,0,2.1983,-1.2921,0.0438\C,0,1.6174,-2.4658,-
 0.7236\C,0,1.1062,-2.3019,-2.0201\C,0,1.6316,-3.7537,-0.1499\C,0,1.099
 8,-4.8583,-0.827\C,0,0.5324,-4.6708,-2.0758\C,0,0.5516,-3.3962,-2.667\
 N,0,-0.1273,-5.6303,-2.8887\C,0,-0.0639,-3.4812,-4.043\C,0,-0.9414,-4.
 7747,-3.7828\C,0,-0.9796,-2.358,-4.5644\C,0,-2.2739,-4.3456,-3.0225\C,
 0,-3.1137,-3.382,-3.8704\C,0,-2.3048,-2.9813,-5.1211\N,0,-0.1424,-1.58
 81,-5.5705\C,0,-0.9504,-0.76,-6.5347\C,0,-2.1925,-1.4248,-7.0942\C,0,-
 3.0693,-1.9597,-5.9686\C,0,1.1077,-3.541,-5.0558\C,0,0.7278,-2.623,-6.
 2108\C,0,-2.1147,-4.3136,-5.9248\C,0,-1.4399,-5.4245,-5.0822\C,0,-0.42
 58,-6.2149,-5.89\O,0,0.0695,-5.8364,-6.9448\O,0,-0.194,-7.4301,-5.3233
 \C,0,0.7828,-8.2181,-6.0038\C,0,-0.7025,-6.7806,-2.207\O,0,0.6713,-0.6
 913,-4.8946\H,0,-0.5586,-0.9293,0.0503\H,0,3.1767,1.2496,0.032\H,0,1.9
 615,3.3835,-0.0777\H,0,-2.6013,-0.2996,-1.2846\H,0,-1.7452,3.5529,-2.9
 953\H,0,-0.8226,2.1237,-2.6301\H,0,-3.3815,2.2743,-3.8852\H,0,-2.4309,
 0.8413,-3.5265\H,0,-4.4059,-1.7422,-0.6174\H,0,-5.6472,-1.165,0.5039\H
 ,0,-6.3992,-1.122,-1.9142\H,0,-6.5439,0.4129,-1.0709\H,0,-4.4924,-0.39
 83,-3.1516\H,0,-5.6426,0.9244,-3.2432\H,0,-3.2717,2.2331,1.615\H,0,-1.
 8033,1.3967,2.077\H,0,-2.7469,-0.7712,1.4272\H,0,-4.0842,0.0838,2.2465
 \H,0,-5.0594,3.1761,-2.2245\H,0,-5.2553,2.4422,-0.6555\H,0,-3.3493,4.4
 649,-1.6089\H,0,-3.2526,5.2954,2.7763\H,0,-2.4656,6.7418,2.115\H,0,-4.
 2085,6.5193,1.8621\H,0,0.2325,4.4953,-1.885\H,0,0.396,5.2304,-0.2723\H
 ,0,-1.0857,5.4521,-1.1946\H,0,2.3129,-1.5604,1.1019\H,0,3.2066,-1.1192
 ,-0.3541\H,0,1.1344,-1.331,-2.5112\H,0,2.0586,-3.9032,0.8397\H,0,1.125
 ,-5.8348,-0.3577\H,0,-1.2187,-1.6189,-3.7866\H,0,-2.8816,-5.2275,-2.78
 23\H,0,-2.0577,-3.8715,-2.0569\H,0,-3.3804,-2.5046,-3.2696\H,0,-4.0601
 ,-3.8595,-4.154\H,0,-1.2425,0.1375,-5.9736\H,0,-0.262,-0.4548,-7.3308\
 H,0,-2.7614,-0.6892,-7.6749\H,0,-1.9197,-2.2199,-7.7941\H,0,-3.3993,-1
 .1217,-5.3415\H,0,-3.9766,-2.4081,-6.3909\H,0,2.028,-3.1319,-4.6146\H,
 0,1.384,-4.5437,-5.3782\H,0,0.1578,-3.1187,-6.9935\H,0,1.5898,-2.1162,
 -6.6567\H,0,-1.5915,-4.141,-6.8646\H,0,-3.1027,-4.6841,-6.2353\H,0,-2.
 2265,-6.157,-4.8449\H,0,0.9291,-9.1408,-5.4355\H,0,1.739,-7.6876,-6.05
 4\H,0,0.4303,-8.4798,-7.0062\H,0,-1.3137,-7.3737,-2.8939\H,0,0.0894,-7
 .4396,-1.8352\H,0,-1.338,-6.485,-1.3645\\Version=ES64L-G16RevB.01\Stat
 e=1-A\HF=-2300.2176385\RMSD=3.963e-09\Dipole=-1.0126834,-1.329498,-0.9
 251047\Quadrupole=-12.4491532,13.2883762,-0.839223,2.5934349,9.6946519
 ,2.0526384\PG=C01 [X(C45H56N4O5)]\\@


 WE THE UNWILLING
 LED BY THE UNQUALIFIED
 HAVE BEEN DOING THE UNBELIEVABLE SO LONG WITH SO LITTLE
 THAT WE NOW ATTEMPT THE IMPOSSIBLE WITH NOTHING.

                                    -- ANONYMOUS
 Job cpu time:       0 days  0 hours 12 minutes 44.3 seconds.
 Elapsed time:       0 days  0 hours  2 minutes  7.0 seconds.
 File lengths (MBytes):  RWF=     67 Int=      0 D2E=      0 Chk=     10 Scr=      1
 Normal termination of Gaussian 16 at Thu May 30 08:47:21 2024.
