 Entering Gaussian System, Link 0=g16
 Input=1_pleiokomenine_1a_c_5.gjf
 Output=1_pleiokomenine_1a_c_5.log
 Initial command:
 /opt/gaussian/g16/l1.exe "/data/abenidd/Elvis/pleiokomenine_C/NMR_HF/1a/1_pleiokomenine_1a_c_5/Gau-26124.inp" -scrdir="/data/abenidd/Elvis/pleiokomenine_C/NMR_HF/1a/1_pleiokomenine_1a_c_5/"
 Entering Link 1 = /opt/gaussian/g16/l1.exe PID=     26126.
  
 Copyright (c) 1988-2017, Gaussian, Inc.  All Rights Reserved.
  
 This is part of the Gaussian(R) 16 program.  It is based on
 the Gaussian(R) 09 system (copyright 2009, Gaussian, Inc.),
 the Gaussian(R) 03 system (copyright 2003, Gaussian, Inc.),
 the Gaussian(R) 98 system (copyright 1998, Gaussian, Inc.),
 the Gaussian(R) 94 system (copyright 1995, Gaussian, Inc.),
 the Gaussian 92(TM) system (copyright 1992, Gaussian, Inc.),
 the Gaussian 90(TM) system (copyright 1990, Gaussian, Inc.),
 the Gaussian 88(TM) system (copyright 1988, Gaussian, Inc.),
 the Gaussian 86(TM) system (copyright 1986, Carnegie Mellon
 University), and the Gaussian 82(TM) system (copyright 1983,
 Carnegie Mellon University). Gaussian is a federally registered
 trademark of Gaussian, Inc.
  
 This software contains proprietary and confidential information,
 including trade secrets, belonging to Gaussian, Inc.
  
 This software is provided under written license and may be
 used, copied, transmitted, or stored only in accord with that
 written license.
  
 The following legend is applicable only to US Government
 contracts under FAR:
  
                    RESTRICTED RIGHTS LEGEND
  
 Use, reproduction and disclosure by the US Government is
 subject to restrictions as set forth in subparagraphs (a)
 and (c) of the Commercial Computer Software - Restricted
 Rights clause in FAR 52.227-19.
  
 Gaussian, Inc.
 340 Quinnipiac St., Bldg. 40, Wallingford CT 06492
  
  
 ---------------------------------------------------------------
 Warning -- This program may not be used in any manner that
 competes with the business of Gaussian, Inc. or will provide
 assistance to any competitor of Gaussian, Inc.  The licensee
 of this program is prohibited from giving any competitor of
 Gaussian, Inc. access to this program.  By using this program,
 the user acknowledges that Gaussian, Inc. is engaged in the
 business of creating and licensing software in the field of
 computational chemistry and represents and warrants to the
 licensee that it is not a competitor of Gaussian, Inc. and that
 it will not use this program in any manner prohibited above.
 ---------------------------------------------------------------
  

 Cite this work as:
 Gaussian 16, Revision B.01,
 M. J. Frisch, G. W. Trucks, H. B. Schlegel, G. E. Scuseria, 
 M. A. Robb, J. R. Cheeseman, G. Scalmani, V. Barone, 
 G. A. Petersson, H. Nakatsuji, X. Li, M. Caricato, A. V. Marenich, 
 J. Bloino, B. G. Janesko, R. Gomperts, B. Mennucci, H. P. Hratchian, 
 J. V. Ortiz, A. F. Izmaylov, J. L. Sonnenberg, D. Williams-Young, 
 F. Ding, F. Lipparini, F. Egidi, J. Goings, B. Peng, A. Petrone, 
 T. Henderson, D. Ranasinghe, V. G. Zakrzewski, J. Gao, N. Rega, 
 G. Zheng, W. Liang, M. Hada, M. Ehara, K. Toyota, R. Fukuda, 
 J. Hasegawa, M. Ishida, T. Nakajima, Y. Honda, O. Kitao, H. Nakai, 
 T. Vreven, K. Throssell, J. A. Montgomery, Jr., J. E. Peralta, 
 F. Ogliaro, M. J. Bearpark, J. J. Heyd, E. N. Brothers, K. N. Kudin, 
 V. N. Staroverov, T. A. Keith, R. Kobayashi, J. Normand, 
 K. Raghavachari, A. P. Rendell, J. C. Burant, S. S. Iyengar, 
 J. Tomasi, M. Cossi, J. M. Millam, M. Klene, C. Adamo, R. Cammi, 
 J. W. Ochterski, R. L. Martin, K. Morokuma, O. Farkas, 
 J. B. Foresman, and D. J. Fox, Gaussian, Inc., Wallingford CT, 2016.
 
 ******************************************
 Gaussian 16:  ES64L-G16RevB.01 20-Dec-2017
                30-May-2024 
 ******************************************
 %nprocshared=8
 Will use up to    8 processors via shared memory.
 ----------------------------------------------
 # nmr=giao hf/sto-3g pop=nbo geom=connectivity
 ----------------------------------------------
 1/38=1,57=2,172=1/1;
 2/12=2,17=6,18=5,40=1/2;
 3/6=3,11=9,25=1,30=1/1,2,3,8;
 4//1;
 5/5=2,38=5/2;
 8/6=1,10=90,11=11/1;
 10/13=100,45=16/2;
 6/7=2,8=2,9=2,10=2,28=1,40=1,64=1/1,7;
 99/9=1/99;
 ------------------
 pleiokomenine_C_1a
 ------------------
 Symbolic Z-matrix:
 Charge =  0 Multiplicity = 1
 C                     0.        0.        0. 
 C                     1.4009    0.        0. 
 C                     2.0943    1.2288    0. 
 C                     1.4102    2.4512    0.0003 
 C                     0.0265    2.4444   -0.0193 
 C                    -0.6631    1.2188   -0.0028 
 N                    -0.8552    3.5582   -0.0722 
 C                    -2.1437    1.4973    0.0725 
 C                    -2.1139    2.9425   -0.5636 
 C                    -3.1421    0.6255   -0.7034 
 C                    -2.0424    2.8054   -2.1475 
 C                    -3.2791    2.0869   -2.7011 
 C                    -4.1119    1.5432   -1.5241 
 N                    -3.7707   -0.219     0.3149 
 C                    -4.9911   -0.892    -0.1043 
 C                    -5.9862   -0.0172   -0.8658 
 C                    -5.3096    0.7206   -2.021 
 C                    -2.5438    1.3195    1.5573 
 C                    -3.8541    0.5429    1.5513 
 C                    -4.5992    2.8089   -0.7396 
 C                    -3.4173    3.7203   -0.3097 
 C                    -3.6138    4.3       1.0802 
 O                    -4.4188    3.8889    1.9067 
 O                    -2.8269    5.3978    1.2604 
 C                    -2.9216    5.9787    2.5606 
 C                    -0.3292    4.7794   -0.6618 
 C                     2.1637   -1.3051   -0.0161 
 C                     2.3549   -1.8668   -1.4062 
 C                     3.4036   -1.4029   -2.2115 
 C                     1.4789   -2.8502   -1.9085 
 C                     1.6361   -3.3708   -3.1988 
 C                     2.6621   -2.8916   -3.9958 
 C                     3.5471   -1.9244   -3.4886 
 N                     2.9622   -3.2433   -5.3389 
 C                     4.6207   -1.6548   -4.5147 
 C                     3.7905   -2.0998   -5.7877 
 C                     5.154    -0.2291   -4.7407 
 C                     2.84     -0.8983   -6.2209 
 C                     3.655     0.3416   -6.6154 
 C                     5.1393    0.0941   -6.2738 
 N                     6.5183   -0.1977   -4.0734 
 C                     7.4099    0.9154   -4.5582 
 C                     7.4115    1.1527   -6.0556 
 C                     5.9897    1.3324   -6.5741 
 C                     5.8619   -2.4798   -4.0854 
 C                     7.0709   -1.5732   -4.2749 
 C                     5.5742   -1.0945   -7.1982 
 C                     4.6771   -2.3443   -7.0184 
 C                     5.4829   -3.6311   -7.0428 
 O                     6.6945   -3.6957   -6.8721 
 O                     4.6916   -4.6943   -7.3515 
 C                     5.3701   -5.9503   -7.3507 
 C                     1.857    -3.7425   -6.1437 
 O                     6.3561    0.0125   -2.7105 
 H                    -0.5606   -0.9299    0.0204 
 H                     3.1833    1.2361   -0.0033 
 H                     1.9728    3.3772    0.0062 
 H                    -2.6175   -0.0439   -1.3989 
 H                    -1.9679    3.7947   -2.6172 
 H                    -1.1437    2.2642   -2.4689 
 H                    -3.8736    2.7796   -3.31 
 H                    -2.9651    1.279    -3.3737 
 H                    -4.7009   -1.7246   -0.7584 
 H                    -5.4873   -1.3578    0.7559 
 H                    -6.7902   -0.6476   -1.2636 
 H                    -6.4616    0.6941   -0.1818 
 H                    -4.9739   -0.0163   -2.7623 
 H                    -6.0397    1.363    -2.5276 
 H                    -2.6023    2.2485    2.1235 
 H                    -1.8073    0.7049    2.0953 
 H                    -3.9169   -0.1182    2.4225 
 H                    -4.7159    1.211     1.5879 
 H                    -5.2592    3.4      -1.391 
 H                    -5.2328    2.533     0.1035 
 H                    -3.4476    4.5993   -0.972 
 H                    -2.2102    6.8075    2.6136 
 H                    -3.928     6.374     2.7292 
 H                    -2.6571    5.2468    3.3304 
 H                     0.1307    4.5999   -1.6402 
 H                     0.4177    5.2322   -0.0009 
 H                    -1.1245    5.5187   -0.7975 
 H                     1.6446   -2.0377    0.6162 
 H                     3.1438   -1.1724    0.4614 
 H                     4.1067   -0.6637   -1.8354 
 H                     0.6637   -3.2175   -1.2887 
 H                     0.9506   -4.1308   -3.5545 
 H                     4.5687    0.5271   -4.1989 
 H                     2.2088   -1.1919   -7.0696 
 H                     2.1408   -0.6245   -5.421 
 H                     3.266     1.222    -6.0888 
 H                     3.5307    0.5452   -7.6865 
 H                     7.0503    1.819    -4.0486 
 H                     8.4148    0.69     -4.1838 
 H                     7.9909    2.0575   -6.2739 
 H                     7.9193    0.3336   -6.5733 
 H                     5.5438    2.218    -6.1028 
 H                     6.0143    1.5334   -7.6519 
 H                     5.8168   -2.7286   -3.0154 
 H                     5.9666   -3.4427   -4.5827 
 H                     7.5071   -1.6298   -5.2699 
 H                     7.8532   -1.7399   -3.5272 
 H                     6.6305   -1.33     -7.0743 
 H                     5.4947   -0.7751   -8.2477 
 H                     4.0437   -2.4053   -7.9167 
 H                     5.8218   -6.1438   -6.3726 
 H                     6.1274   -5.9747   -8.1404 
 H                     4.6336   -6.7331   -7.5519 
 H                     2.153    -3.8374   -7.1929 
 H                     1.558    -4.7405   -5.8058 
 H                     0.9844   -3.0808   -6.101 
 
 Stoichiometry    C45H56N4O5
 Framework group  C1[X(C45H56N4O5)]
 Deg. of freedom   324
 Full point group                 C1      NOp   1
 Largest Abelian subgroup         C1      NOp   1
 Largest concise Abelian subgroup C1      NOp   1
                         Standard orientation:                         
 ---------------------------------------------------------------------
 Center     Atomic      Atomic             Coordinates (Angstroms)
 Number     Number       Type             X           Y           Z
 ---------------------------------------------------------------------
      1          6           0        2.221765    0.207546    1.813462
      2          6           0        1.170709   -0.594174    2.277195
      3          6           0        1.139799   -1.962812    1.935686
      4          6           0        2.139998   -2.538125    1.141412
      5          6           0        3.165097   -1.736621    0.670437
      6          6           0        3.203139   -0.376266    1.025267
      7          7           0        4.242227   -2.101426   -0.182471
      8          6           0        4.464634    0.234481    0.467569
      9          6           0        4.682078   -0.787595   -0.716573
     10          6           0        4.457062    1.663577   -0.095002
     11          6           0        3.737941   -0.376629   -1.929982
     12          6           0        4.087524    1.019400   -2.460111
     13          6           0        5.116998    1.670771   -1.516503
     14          7           0        5.129793    2.470391    0.925654
     15          6           0        5.556194    3.791964    0.490153
     16          6           0        6.249271    3.834728   -0.871169
     17          6           0        5.425789    3.114514   -1.938780
     18          6           0        5.477612    0.282102    1.637155
     19          6           0        6.148272    1.647457    1.559383
     20          6           0        6.400644    0.778539   -1.621724
     21          6           0        6.103710   -0.711863   -1.300968
     22          6           0        7.215499   -1.359261   -0.493944
     23          8           0        8.091943   -0.752665    0.109394
     24          8           0        7.157371   -2.716880   -0.595633
     25          6           0        8.145921   -3.404035    0.170865
     26          6           0        4.022727   -3.240402   -1.060074
     27          6           0        0.070193    0.004931    3.122977
     28          6           0       -1.030557    0.641170    2.305669
     29          6           0       -2.057628   -0.151248    1.775875
     30          6           0       -1.030011    2.029150    2.060174
     31          6           0       -2.036216    2.630701    1.294473
     32          6           0       -3.035784    1.837375    0.756871
     33          6           0       -3.046947    0.455994    1.016898
     34          7           0       -4.109809    2.235019   -0.083379
     35          6           0       -4.286600   -0.149130    0.404307
     36          6           0       -4.512751    0.953959   -0.709172
     37          6           0       -4.238253   -1.532859   -0.267304
     38          6           0       -3.549780    0.641633   -1.937934
     39          6           0       -3.875699   -0.719829   -2.568334
     40          6           0       -4.907608   -1.447612   -1.681436
     41          7           0       -4.897180   -2.483165    0.717745
     42          6           0       -5.378720   -3.768603    0.097468
     43          6           0       -6.075670   -3.632490   -1.242029
     44          6           0       -5.211011   -2.848495   -2.222011
     45          6           0       -5.319804   -0.300084    1.551130
     46          6           0       -5.965868   -1.667886    1.374401
     47          6           0       -6.195070   -0.556032   -1.744284
     48          6           0       -5.924803    0.906801   -1.312784
     49          6           0       -7.054674    1.468625   -0.468089
     50          8           0       -7.899342    0.789314    0.103190
     51          8           0       -7.047282    2.829262   -0.489467
     52          6           0       -8.056079    3.434115    0.319471
     53          6           0       -3.904128    3.436826   -0.878190
     54          8           0       -3.972516   -2.852114    1.685662
     55          1           0        2.282832    1.259371    2.076781
     56          1           0        0.323918   -2.591092    2.290070
     57          1           0        2.089756   -3.593713    0.902167
     58          1           0        3.429856    2.043572   -0.181451
     59          1           0        3.828119   -1.099815   -2.750806
     60          1           0        2.678540   -0.393237   -1.644938
     61          1           0        4.488061    0.943830   -3.478876
     62          1           0        3.175258    1.624488   -2.533104
     63          1           0        4.661712    4.426195    0.435953
     64          1           0        6.196957    4.257790    1.248808
     65          1           0        6.391517    4.879668   -1.171053
     66          1           0        7.250180    3.395932   -0.797350
     67          1           0        4.489259    3.665930   -2.094005
     68          1           0        5.962020    3.134145   -2.895043
     69          1           0        6.190256   -0.541908    1.651067
     70          1           0        4.964220    0.230014    2.608404
     71          1           0        6.391901    2.017324    2.561296
     72          1           0        7.080220    1.604344    0.993688
     73          1           0        6.787435    0.830021   -2.649860
     74          1           0        7.211091    1.176520   -1.010845
     75          1           0        6.126949   -1.246077   -2.263400
     76          1           0        7.970190   -4.478122    0.064728
     77          1           0        9.147388   -3.177272   -0.207516
     78          1           0        8.062279   -3.143498    1.230749
     79          1           0        3.089850   -3.149479   -1.627938
     80          1           0        3.991448   -4.169258   -0.480485
     81          1           0        4.842204   -3.340520   -1.778346
     82          1           0        0.501620    0.744283    3.810872
     83          1           0       -0.360306   -0.764460    3.777897
     84          1           0       -2.092298   -1.219785    1.973977
     85          1           0       -0.237557    2.651765    2.470027
     86          1           0       -2.012268    3.701193    1.128617
     87          1           0       -3.212055   -1.913435   -0.367513
     88          1           0       -3.641023    1.419094   -2.707438
     89          1           0       -2.494015    0.651787   -1.639701
     90          1           0       -2.955343   -1.307674   -2.673763
     91          1           0       -4.266633   -0.577453   -3.583745
     92          1           0       -4.480154   -4.387935   -0.022971
     93          1           0       -6.024838   -4.246621    0.842340
     94          1           0       -6.265279   -4.632311   -1.649987
     95          1           0       -7.056052   -3.163043   -1.118452
     96          1           0       -4.275077   -3.395898   -2.394108
     97          1           0       -5.718231   -2.787824   -3.192427
     98          1           0       -4.820355   -0.309528    2.530567
     99          1           0       -6.044248    0.509355    1.624850
    100          1           0       -6.840783   -1.656997    0.727946
    101          1           0       -6.224593   -2.145884    2.324883
    102          1           0       -7.015974   -1.001159   -1.183428
    103          1           0       -6.562103   -0.535560   -2.780939
    104          1           0       -5.947946    1.512322   -2.231843
    105          1           0       -7.955843    3.116550    1.362189
    106          1           0       -9.050738    3.191258   -0.067051
    107          1           0       -7.921410    4.518322    0.274213
    108          1           0       -4.717710    3.569993   -1.597768
    109          1           0       -3.898891    4.323951   -0.235879
    110          1           0       -2.963406    3.403632   -1.439476
 ---------------------------------------------------------------------
 Rotational constants (GHZ):           0.1070810           0.0245590           0.0226515
 Standard basis: STO-3G (5D, 7F)
 There are   326 symmetry adapted cartesian basis functions of A   symmetry.
 There are   326 symmetry adapted basis functions of A   symmetry.
   326 basis functions,   978 primitive gaussians,   326 cartesian basis functions
   197 alpha electrons      197 beta electrons
       nuclear repulsion energy      7821.0561013439 Hartrees.
 NAtoms=  110 NActive=  110 NUniq=  110 SFac= 1.00D+00 NAtFMM=   60 NAOKFM=T Big=T
 Integral buffers will be    131072 words long.
 Raffenetti 1 integral format.
 Two-electron integral symmetry is turned on.
 One-electron integrals computed using PRISM.
 NBasis=   326 RedAO= T EigKep=  1.73D-01  NBF=   326
 NBsUse=   326 1.00D-06 EigRej= -1.00D+00 NBFU=   326
 ExpMin= 1.69D-01 ExpMax= 1.31D+02 ExpMxC= 1.31D+02 IAcc=3 IRadAn=         5 AccDes= 0.00D+00
 Harris functional with IExCor=  205 and IRadAn=       5 diagonalized for initial guess.
 HarFok:  IExCor=  205 AccDes= 0.00D+00 IRadAn=         5 IDoV= 1 UseB2=F ITyADJ=14
 ICtDFT=  3500011 ScaDFX=  1.000000  1.000000  1.000000  1.000000
 FoFCou: FMM=F IPFlag=           0 FMFlag=      100000 FMFlg1=        2001
         NFxFlg=           0 DoJE=T BraDBF=F KetDBF=T FulRan=T
         wScrn=  0.000000 ICntrl=       500 IOpCl=  0 I1Cent=   200000004 NGrid=           0
         NMat0=    1 NMatS0=      1 NMatT0=    0 NMatD0=    1 NMtDS0=    0 NMtDT0=    0
 Petite list used in FoFCou.
 Requested convergence on RMS density matrix=1.00D-08 within 128 cycles.
 Requested convergence on MAX density matrix=1.00D-06.
 Requested convergence on             energy=1.00D-06.
 No special actions if energy rises.
 Integral accuracy reduced to 1.0D-05 until final iterations.
 Initial convergence to 1.0D-05 achieved.  Increase integral accuracy.
 SCF Done:  E(RHF) =  -2300.22715450     A.U. after   15 cycles
            NFock= 15  Conv=0.94D-08     -V/T= 2.0092
 Range of M.O.s used for correlation:     1   326
 NBasis=   326 NAE=   197 NBE=   197 NFC=     0 NFV=     0
 NROrb=    326 NOA=   197 NOB=   197 NVA=   129 NVB=   129
          Differentiating once with respect to magnetic field using GIAOs.
          Electric field/nuclear overlap derivatives assumed to be zero.
 FoFCou: FMM=F IPFlag=           0 FMFlag=      100000 FMFlg1=        2001
         NFxFlg=           0 DoJE=F BraDBF=F KetDBF=T FulRan=T
         wScrn=  0.000000 ICntrl=      6100 IOpCl=  0 I1Cent=           7 NGrid=         110
         NMat0=    1 NMatS0=      1 NMatT0=    0 NMatD0=    1 NMtDS0=    0 NMtDT0=    0
 Symmetry not used in FoFCou.
 FoFJK:  IHMeth= 1 ICntrl=    6127 DoSepK=F KAlg= 0 I1Cent=           0 FoldK=F
 IRaf=         1 NMat=       1 IRICut=       1 DoRegI=T DoRafI=F ISym2E= 0 IDoP0=0 IntGTp=1.
          There are     3 degrees of freedom in the 1st order CPHF.  IDoFFX=0 NUNeed=     3.
      3 vectors produced by pass  0 Test12= 8.47D-13 3.33D-08 XBig12= 2.34D+02 2.61D+00.
 AX will form     3 AO Fock derivatives at one time.
      3 vectors produced by pass  1 Test12= 8.47D-13 3.33D-08 XBig12= 8.09D-01 3.32D-01.
      3 vectors produced by pass  2 Test12= 8.47D-13 3.33D-08 XBig12= 1.99D-02 4.00D-02.
      3 vectors produced by pass  3 Test12= 8.47D-13 3.33D-08 XBig12= 4.72D-04 7.92D-03.
      3 vectors produced by pass  4 Test12= 8.47D-13 3.33D-08 XBig12= 2.39D-05 1.37D-03.
      3 vectors produced by pass  5 Test12= 8.47D-13 3.33D-08 XBig12= 4.21D-07 7.49D-05.
      3 vectors produced by pass  6 Test12= 8.47D-13 3.33D-08 XBig12= 9.65D-09 1.77D-05.
      3 vectors produced by pass  7 Test12= 8.47D-13 3.33D-08 XBig12= 3.48D-10 3.90D-06.
      3 vectors produced by pass  8 Test12= 8.47D-13 3.33D-08 XBig12= 7.72D-12 3.37D-07.
      2 vectors produced by pass  9 Test12= 8.47D-13 3.33D-08 XBig12= 1.38D-13 7.33D-08.
 InvSVY:  IOpt=1 It=  1 EMax= 3.55D-15
 Solved reduced A of dimension    29 with     3 vectors.
 Calculating GIAO nuclear magnetic shielding tensors.
 SCF GIAO Magnetic shielding tensor (ppm):
      1  C    Isotropic =   124.3539   Anisotropy =   148.4892
   XX=   143.8609   YX=   -22.1553   ZX=    45.7943
   XY=   -14.4396   YY=    42.6553   ZY=   -39.2572
   XZ=    39.4264   YZ=   -40.3914   ZZ=   186.5456
   Eigenvalues:    31.8665   117.8485   223.3468
      2  C    Isotropic =   120.1674   Anisotropy =   158.3383
   XX=   106.7956   YX=    -5.5726   ZX=    78.9217
   XY=     1.3490   YY=    93.3509   ZY=   -36.6136
   XZ=    81.8821   YZ=   -36.8929   ZZ=   160.3558
   Eigenvalues:    40.5693    94.2066   225.7263
      3  C    Isotropic =   118.7310   Anisotropy =   153.7841
   XX=    94.0031   YX=   -43.4636   ZX=    71.3107
   XY=   -48.1594   YY=    85.3615   ZY=    -5.4259
   XZ=    67.6835   YZ=    -0.1227   ZZ=   176.8285
   Eigenvalues:    27.4296   107.5098   221.2538
      4  C    Isotropic =   133.6620   Anisotropy =   143.3313
   XX=   150.5856   YX=   -16.4238   ZX=    48.0287
   XY=   -20.4307   YY=    60.0594   ZY=   -31.2164
   XZ=    42.9077   YZ=   -38.5591   ZZ=   190.3409
   Eigenvalues:    50.7530   121.0167   229.2161
      5  C    Isotropic =   108.9804   Anisotropy =   126.6441
   XX=    98.6899   YX=    -6.3224   ZX=    63.9022
   XY=     8.5892   YY=    88.2804   ZY=   -36.3027
   XZ=    61.7238   YZ=   -35.5927   ZZ=   139.9709
   Eigenvalues:    41.4645    92.0670   193.4098
      6  C    Isotropic =   117.7631   Anisotropy =   139.5845
   XX=   103.7162   YX=   -22.5288   ZX=    61.5344
   XY=   -34.2849   YY=    77.2039   ZY=   -11.3827
   XZ=    58.0925   YZ=    -7.3372   ZZ=   172.3693
   Eigenvalues:    51.4942    90.9757   210.8194
      7  N    Isotropic =   274.4258   Anisotropy =    82.0113
   XX=   281.2406   YX=    -9.5147   ZX=   -48.7714
   XY=     4.3121   YY=   249.5323   ZY=    -9.2715
   XZ=   -34.7621   YZ=    -2.0738   ZZ=   292.5044
   Eigenvalues:   240.9290   253.2483   329.1000
      8  C    Isotropic =   195.8653   Anisotropy =    12.9773
   XX=   194.8111   YX=     3.2277   ZX=     3.7347
   XY=    -3.8175   YY=   204.0200   ZY=     0.6400
   XZ=     4.2302   YZ=     4.8506   ZZ=   188.7648
   Eigenvalues:   186.4052   196.6739   204.5168
      9  C    Isotropic =   181.1490   Anisotropy =    44.3926
   XX=   168.2392   YX=     5.8593   ZX=    -6.7472
   XY=    13.0213   YY=   207.3235   ZY=    -5.1629
   XZ=   -23.0946   YZ=    -2.3243   ZZ=   167.8843
   Eigenvalues:   152.8339   179.8691   210.7441
     10  C    Isotropic =   190.2872   Anisotropy =    29.6839
   XX=   184.2609   YX=    11.5862   ZX=     8.0950
   XY=    15.2081   YY=   194.7567   ZY=     6.1897
   XZ=    11.3039   YZ=     5.8395   ZZ=   191.8441
   Eigenvalues:   173.6557   187.1295   210.0765
     11  C    Isotropic =   213.9226   Anisotropy =    18.7714
   XX=   213.3418   YX=     2.5673   ZX=     9.7586
   XY=    -4.4522   YY=   210.9563   ZY=    -6.2091
   XZ=     8.6928   YZ=    -4.7967   ZZ=   217.4697
   Eigenvalues:   204.5529   210.7780   226.4368
     12  C    Isotropic =   212.9800   Anisotropy =    21.0399
   XX=   215.0054   YX=     6.7166   ZX=     9.1705
   XY=     8.2409   YY=   213.5500   ZY=     5.1788
   XZ=     7.7190   YZ=     3.6807   ZZ=   210.3844
   Eigenvalues:   203.7550   208.1783   227.0065
     13  C    Isotropic =   213.7428   Anisotropy =     8.2598
   XX=   214.7828   YX=    -1.1983   ZX=     2.5604
   XY=    -2.9223   YY=   214.7889   ZY=    -5.5216
   XZ=    -1.5235   YZ=    -4.2839   ZZ=   211.6568
   Eigenvalues:   207.9774   214.0017   219.2494
     14  N    Isotropic =   302.9525   Anisotropy =    55.1178
   XX=   290.6284   YX=     0.0728   ZX=    49.9480
   XY=    13.3601   YY=   331.4726   ZY=    -7.0074
   XZ=    45.9836   YZ=     7.1776   ZZ=   286.7565
   Eigenvalues:   240.4554   328.7045   339.6977
     15  C    Isotropic =   205.2840   Anisotropy =    34.6499
   XX=   191.4824   YX=     9.6679   ZX=    -6.5305
   XY=     5.3643   YY=   225.2702   ZY=    -5.9981
   XZ=    -5.8914   YZ=    -4.8432   ZZ=   199.0993
   Eigenvalues:   187.5424   199.9256   228.3839
     16  C    Isotropic =   224.2088   Anisotropy =     8.6196
   XX=   220.1166   YX=     0.1943   ZX=     0.6899
   XY=     5.3661   YY=   225.9419   ZY=     3.1272
   XZ=    -0.4414   YZ=     3.4142   ZZ=   226.5678
   Eigenvalues:   218.8189   223.8522   229.9552
     17  C    Isotropic =   215.3023   Anisotropy =    20.0888
   XX=   210.0139   YX=     6.3414   ZX=     0.4899
   XY=     3.2165   YY=   227.3787   ZY=     0.6024
   XZ=     1.0894   YZ=    -3.7527   ZZ=   208.5143
   Eigenvalues:   207.4378   209.7743   228.6949
     18  C    Isotropic =   210.5467   Anisotropy =    37.7414
   XX=   214.6465   YX=    19.7264   ZX=    17.1268
   XY=    11.7009   YY=   204.1001   ZY=    -0.6386
   XZ=    17.5160   YZ=     0.8970   ZZ=   212.8935
   Eigenvalues:   187.7634   208.1691   235.7077
     19  C    Isotropic =   199.7104   Anisotropy =    42.3882
   XX=   197.2536   YX=    -6.3883   ZX=    23.1511
   XY=    -9.7147   YY=   211.6556   ZY=   -14.4635
   XZ=    17.4092   YZ=   -12.1036   ZZ=   190.2218
   Eigenvalues:   172.4272   198.7347   227.9692
     20  C    Isotropic =   212.2818   Anisotropy =    21.3804
   XX=   214.4439   YX=    -8.5668   ZX=    -3.1914
   XY=    -9.4126   YY=   219.2810   ZY=    -5.3021
   XZ=    -3.9558   YZ=    -7.1572   ZZ=   203.1205
   Eigenvalues:   198.1682   212.1418   226.5354
     21  C    Isotropic =   209.0901   Anisotropy =    10.8564
   XX=   215.2389   YX=    -7.5748   ZX=    -0.0688
   XY=     0.5238   YY=   204.1615   ZY=    -4.7657
   XZ=    -2.2440   YZ=    -7.3818   ZZ=   207.8700
   Eigenvalues:   198.9014   212.0413   216.3277
     22  C    Isotropic =    96.4417   Anisotropy =    99.3098
   XX=   132.5897   YX=    57.8335   ZX=   -19.1354
   XY=    75.7286   YY=    13.9882   ZY=    48.4055
   XZ=   -19.2373   YZ=    33.8571   ZZ=   142.7471
   Eigenvalues:   -28.0774   154.7542   162.6482
     23  O    Isotropic =  -134.4020   Anisotropy =   887.0308
   XX=  -181.0339   YX=  -108.9747   ZX=  -441.3706
   XY=   -93.6604   YY=  -383.3724   ZY=   -83.5059
   XZ=  -426.8602   YZ=   -88.7795   ZZ=   161.2005
   Eigenvalues:  -570.2155  -289.9423   456.9519
     24  O    Isotropic =   284.0319   Anisotropy =   139.3896
   XX=   202.4634   YX=    98.0116   ZX=  -117.7935
   XY=   -26.7862   YY=   369.2668   ZY=   -14.9230
   XZ=  -100.4886   YZ=    66.3981   ZZ=   280.3656
   Eigenvalues:   117.8528   357.2846   376.9583
     25  C    Isotropic =   197.3420   Anisotropy =    57.7471
   XX=   204.8526   YX=   -21.8743   ZX=    18.5391
   XY=   -21.8934   YY=   195.0274   ZY=   -15.6189
   XZ=    19.0777   YZ=   -15.0345   ZZ=   192.1461
   Eigenvalues:   177.4823   178.7037   235.8401
     26  C    Isotropic =   209.9282   Anisotropy =    40.5898
   XX=   199.8006   YX=     3.0163   ZX=     3.5284
   XY=     0.8854   YY=   223.6524   ZY=    20.0279
   XZ=     4.6101   YZ=    19.5349   ZZ=   206.3318
   Eigenvalues:   192.6011   200.1955   236.9881
     27  C    Isotropic =   206.2537   Anisotropy =    15.9379
   XX=   213.7255   YX=    -6.7832   ZX=    -0.0515
   XY=    -7.1548   YY=   201.4713   ZY=     0.2042
   XZ=    -0.0492   YZ=     0.1356   ZZ=   203.5642
   Eigenvalues:   198.3155   203.5666   216.8789
     28  C    Isotropic =   119.8891   Anisotropy =   158.6718
   XX=   108.7795   YX=     1.3179   ZX=   -80.6300
   XY=     6.5825   YY=    88.3867   ZY=    29.9701
   XZ=   -83.1555   YZ=    31.9527   ZZ=   162.5012
   Eigenvalues:    39.5360    94.4610   225.6703
     29  C    Isotropic =   121.3584   Anisotropy =   155.2191
   XX=   139.1823   YX=   -17.9087   ZX=   -53.2629
   XY=    -8.4597   YY=    35.7511   ZY=    29.3656
   XZ=   -45.1408   YZ=    30.0672   ZZ=   189.1418
   Eigenvalues:    30.0312   109.2063   224.8378
     30  C    Isotropic =   119.0615   Anisotropy =   153.0545
   XX=    98.1635   YX=   -38.7508   ZX=   -74.9460
   XY=   -43.3770   YY=    84.6552   ZY=    -3.9129
   XZ=   -72.1530   YZ=    -8.6241   ZZ=   174.3660
   Eigenvalues:    27.2260   108.8608   221.0979
     31  C    Isotropic =   134.4356   Anisotropy =   141.9135
   XX=   153.0860   YX=   -11.0786   ZX=   -49.5561
   XY=   -14.9611   YY=    56.6612   ZY=    20.4482
   XZ=   -45.0343   YZ=    27.4380   ZZ=   193.5595
   Eigenvalues:    52.3080   121.9542   229.0446
     32  C    Isotropic =   109.2771   Anisotropy =   126.0397
   XX=    99.9343   YX=    -1.3819   ZX=   -65.6339
   XY=    12.4472   YY=    84.6732   ZY=    30.6438
   XZ=   -61.9024   YZ=    30.0931   ZZ=   143.2239
   Eigenvalues:    41.8394    92.6884   193.3036
     33  C    Isotropic =   119.5718   Anisotropy =   135.5719
   XX=   106.7646   YX=   -19.6057   ZX=   -62.3371
   XY=   -31.1578   YY=    79.2168   ZY=     1.3295
   XZ=   -58.9857   YZ=    -3.3174   ZZ=   172.7339
   Eigenvalues:    51.8461    96.9162   209.9530
     34  N    Isotropic =   275.3363   Anisotropy =    81.4866
   XX=   280.2540   YX=   -11.4135   ZX=    47.3171
   XY=     2.8146   YY=   250.3633   ZY=     6.9057
   XZ=    34.9747   YZ=    -0.7061   ZZ=   295.3915
   Eigenvalues:   242.4520   253.8961   329.6607
     35  C    Isotropic =   195.4589   Anisotropy =    13.5554
   XX=   193.9391   YX=     1.6732   ZX=    -1.5136
   XY=    -3.9804   YY=   204.1250   ZY=    -0.4773
   XZ=    -3.4074   YZ=    -3.9696   ZZ=   188.3126
   Eigenvalues:   187.0264   194.8545   204.4958
     36  C    Isotropic =   181.4365   Anisotropy =    44.1547
   XX=   167.4964   YX=     5.3094   ZX=     7.0118
   XY=    11.2960   YY=   206.7579   ZY=     7.9056
   XZ=    23.4730   YZ=     5.1876   ZZ=   170.0552
   Eigenvalues:   153.4230   180.0134   210.8730
     37  C    Isotropic =   180.1587   Anisotropy =    46.0916
   XX=   174.7559   YX=    14.0765   ZX=   -15.0742
   XY=    13.4712   YY=   185.3229   ZY=   -19.9615
   XZ=   -17.9428   YZ=   -10.6302   ZZ=   180.3973
   Eigenvalues:   160.7917   168.7979   210.8865
     38  C    Isotropic =   213.9330   Anisotropy =    18.8994
   XX=   213.3370   YX=     3.2595   ZX=    -9.8749
   XY=    -3.7686   YY=   210.3765   ZY=     5.3904
   XZ=    -9.2909   YZ=     4.0437   ZZ=   218.0856
   Eigenvalues:   204.4380   210.8284   226.5326
     39  C    Isotropic =   212.6546   Anisotropy =    21.6090
   XX=   214.6785   YX=     7.5679   ZX=    -8.8860
   XY=     8.9729   YY=   213.6643   ZY=    -5.5141
   XZ=    -7.1513   YZ=    -3.4116   ZZ=   209.6209
   Eigenvalues:   203.4204   207.4827   227.0605
     40  C    Isotropic =   212.1234   Anisotropy =     9.2575
   XX=   209.2172   YX=    -0.8518   ZX=    -0.1870
   XY=    -0.1055   YY=   214.1264   ZY=     4.4147
   XZ=     2.1826   YZ=     4.9372   ZZ=   213.0266
   Eigenvalues:   207.9611   210.1141   218.2951
     41  N    Isotropic =   234.6044   Anisotropy =    25.3079
   XX=   238.5193   YX=   -14.8848   ZX=     2.1572
   XY=     2.9601   YY=   232.0425   ZY=    -6.5180
   XZ=     3.7262   YZ=   -25.0109   ZZ=   233.2515
   Eigenvalues:   216.6246   235.7123   251.4764
     42  C    Isotropic =   194.9404   Anisotropy =    49.3958
   XX=   183.7067   YX=     9.1813   ZX=    16.3587
   XY=     7.5955   YY=   218.7874   ZY=    18.9560
   XZ=     7.8697   YZ=    12.0087   ZZ=   182.3270
   Eigenvalues:   170.0791   186.8711   227.8709
     43  C    Isotropic =   222.9958   Anisotropy =    10.4382
   XX=   218.4158   YX=     3.8449   ZX=     0.9859
   XY=     4.9452   YY=   224.4077   ZY=    -4.8087
   XZ=     1.3090   YZ=    -3.6123   ZZ=   226.1639
   Eigenvalues:   215.2099   223.8229   229.9546
     44  C    Isotropic =   215.7673   Anisotropy =    19.2670
   XX=   210.4996   YX=     5.3071   ZX=     0.0744
   XY=     2.5100   YY=   227.4342   ZY=     0.2526
   XZ=    -0.7618   YZ=     4.9678   ZZ=   209.3681
   Eigenvalues:   208.4087   210.2811   228.6119
     45  C    Isotropic =   211.0147   Anisotropy =    38.4303
   XX=   216.1859   YX=    20.5312   ZX=   -15.6566
   XY=    13.1678   YY=   205.0596   ZY=    -0.3914
   XZ=   -16.8477   YZ=    -1.8696   ZZ=   211.7987
   Eigenvalues:   188.8011   207.6081   236.6349
     46  C    Isotropic =   191.7584   Anisotropy =    52.5788
   XX=   194.7309   YX=    -9.0651   ZX=   -30.5637
   XY=   -17.9762   YY=   202.8267   ZY=     8.3710
   XZ=   -25.0775   YZ=    10.9113   ZZ=   177.7175
   Eigenvalues:   157.1301   191.3342   226.8109
     47  C    Isotropic =   212.5777   Anisotropy =    21.9654
   XX=   214.8073   YX=    -9.1403   ZX=     2.6545
   XY=    -9.7090   YY=   218.7837   ZY=     6.7271
   XZ=     3.1317   YZ=     8.3868   ZZ=   204.1421
   Eigenvalues:   198.1287   212.3831   227.2213
     48  C    Isotropic =   209.5115   Anisotropy =    10.6170
   XX=   215.7244   YX=    -6.9867   ZX=    -0.8480
   XY=     0.7586   YY=   203.3443   ZY=     4.4576
   XZ=     1.9783   YZ=     7.0277   ZZ=   209.4659
   Eigenvalues:   199.3589   212.5861   216.5895
     49  C    Isotropic =    96.0959   Anisotropy =    99.4978
   XX=   126.6215   YX=    61.4256   ZX=    25.4414
   XY=    78.2807   YY=    24.9418   ZY=   -54.9848
   XZ=    26.3948   YZ=   -40.3386   ZZ=   136.7245
   Eigenvalues:   -28.4243   154.2843   162.4278
     50  O    Isotropic =  -133.8419   Anisotropy =   886.8001
   XX=  -164.8923   YX=  -128.5737   ZX=   433.5215
   XY=  -106.6899   YY=  -402.2096   ZY=    66.5238
   XZ=   418.5018   YZ=    74.3776   ZZ=   165.5762
   Eigenvalues:  -568.9646  -289.9192   457.3582
     51  O    Isotropic =   283.3622   Anisotropy =   138.7680
   XX=   200.7531   YX=    84.8193   ZX=   124.0542
   XY=   -39.3120   YY=   372.8370   ZY=    25.5340
   XZ=   103.3415   YZ=   -57.9542   ZZ=   276.4966
   Eigenvalues:   115.7497   358.4627   375.8742
     52  C    Isotropic =   197.1650   Anisotropy =    58.0384
   XX=   205.9985   YX=   -20.4086   ZX=   -20.4753
   XY=   -20.2895   YY=   191.6246   ZY=    15.1140
   XZ=   -20.9650   YZ=    14.5500   ZZ=   193.8718
   Eigenvalues:   177.2179   178.4197   235.8573
     53  C    Isotropic =   209.9141   Anisotropy =    40.7749
   XX=   199.7040   YX=     2.9501   ZX=    -3.0686
   XY=     0.9300   YY=   226.4182   ZY=   -18.7422
   XZ=    -4.3226   YZ=   -18.3057   ZZ=   203.6202
   Eigenvalues:   192.5169   200.1281   237.0974
     54  O    Isotropic =     0.6630   Anisotropy =   521.4729
   XX=    62.1538   YX=  -124.0462   ZX=   222.2828
   XY=  -106.2835   YY=  -148.9534   ZY=   -98.1600
   XZ=   223.7763   YZ=  -115.4709   ZZ=    88.7886
   Eigenvalues:  -200.2933  -146.0294   348.3116
     55  H    Isotropic =    25.6506   Anisotropy =    15.1082
   XX=    32.6378   YX=     0.9993   ZX=    -5.6429
   XY=     0.9437   YY=    22.2721   ZY=     0.5833
   XZ=    -7.2906   YZ=     0.9242   ZZ=    22.0419
   Eigenvalues:    18.6465    22.5826    35.7228
     56  H    Isotropic =    25.3315   Anisotropy =     5.9044
   XX=    27.0730   YX=    -1.6403   ZX=    -1.6803
   XY=    -1.0033   YY=    27.6370   ZY=     0.8452
   XZ=    -1.9638   YZ=     1.6085   ZZ=    21.2845
   Eigenvalues:    20.6589    26.0679    29.2678
     57  H    Isotropic =    26.5245   Anisotropy =     8.3483
   XX=    28.8736   YX=     1.5150   ZX=    -4.8116
   XY=     1.4816   YY=    27.6616   ZY=    -0.0949
   XZ=    -5.0101   YZ=    -0.1456   ZZ=    23.0385
   Eigenvalues:    20.1885    27.2950    32.0901
     58  H    Isotropic =    31.6425   Anisotropy =    11.3755
   XX=    38.3960   YX=    -3.3950   ZX=    -1.3195
   XY=    -1.3671   YY=    29.7796   ZY=     0.7589
   XZ=    -2.1316   YZ=    -1.0107   ZZ=    26.7519
   Eigenvalues:    26.4266    29.2746    39.2261
     59  H    Isotropic =    32.3116   Anisotropy =    12.5361
   XX=    26.1902   YX=     1.6509   ZX=     3.0474
   XY=     2.0480   YY=    34.3712   ZY=     4.1790
   XZ=     1.2187   YZ=     5.1011   ZZ=    36.3735
   Eigenvalues:    25.6385    30.6274    40.6690
     60  H    Isotropic =    33.1879   Anisotropy =    11.4981
   XX=    40.5980   YX=     1.5180   ZX=     2.2158
   XY=     2.0364   YY=    28.1677   ZY=    -2.4013
   XZ=    -2.0617   YZ=    -2.2103   ZZ=    30.7980
   Eigenvalues:    26.6488    32.0616    40.8533
     61  H    Isotropic =    32.4784   Anisotropy =    14.3962
   XX=    27.1268   YX=     1.2634   ZX=    -0.6576
   XY=     1.2277   YY=    28.3010   ZY=    -0.3007
   XZ=    -1.0622   YZ=    -0.5758   ZZ=    42.0074
   Eigenvalues:    26.3213    29.0381    42.0759
     62  H    Isotropic =    32.7905   Anisotropy =    13.5835
   XX=    37.7017   YX=    -4.3415   ZX=     4.9820
   XY=    -3.7532   YY=    31.5908   ZY=    -2.8175
   XZ=     3.5693   YZ=    -3.3460   ZZ=    29.0790
   Eigenvalues:    26.7385    29.7869    41.8462
     63  H    Isotropic =    31.7779   Anisotropy =    14.5659
   XX=    31.7748   YX=    -5.4443   ZX=    -2.1331
   XY=    -6.4968   YY=    37.3208   ZY=     1.8330
   XZ=    -2.1754   YZ=     0.9431   ZZ=    26.2382
   Eigenvalues:    25.4397    28.4055    41.4885
     64  H    Isotropic =    31.7572   Anisotropy =    15.5725
   XX=    27.9547   YX=     5.4075   ZX=     4.3971
   XY=     4.8610   YY=    34.4163   ZY=     5.7008
   XZ=     3.6674   YZ=     5.1573   ZZ=    32.9006
   Eigenvalues:    24.9299    28.2029    42.1389
     65  H    Isotropic =    32.6501   Anisotropy =    17.9359
   XX=    27.3737   YX=     4.9947   ZX=    -0.9858
   XY=     5.4929   YY=    41.9971   ZY=    -3.6845
   XZ=    -1.2709   YZ=    -3.6760   ZZ=    28.5796
   Eigenvalues:    25.6864    27.6566    44.6074
     66  H    Isotropic =    32.5266   Anisotropy =    11.3329
   XX=    40.0360   YX=     0.8084   ZX=    -0.0757
   XY=     0.4658   YY=    30.7066   ZY=    -0.0952
   XZ=    -0.2696   YZ=    -0.2691   ZZ=    26.8372
   Eigenvalues:    26.8271    30.6709    40.0819
     67  H    Isotropic =    32.7098   Anisotropy =    12.9262
   XX=    33.7921   YX=    -4.2555   ZX=     4.2578
   XY=    -4.2772   YY=    35.4218   ZY=    -3.5780
   XZ=     3.7402   YZ=    -3.8785   ZZ=    28.9155
   Eigenvalues:    26.4366    30.3656    41.3273
     68  H    Isotropic =    32.5287   Anisotropy =    14.4418
   XX=    28.1635   YX=     2.8360   ZX=    -5.1387
   XY=     2.5601   YY=    30.7541   ZY=    -3.0472
   XZ=    -4.9203   YZ=    -3.5658   ZZ=    38.6683
   Eigenvalues:    25.7307    29.6988    42.1565
     69  H    Isotropic =    32.9138   Anisotropy =    11.0894
   XX=    33.8924   YX=    -5.8606   ZX=     2.2871
   XY=    -5.9398   YY=    34.1027   ZY=    -0.9000
   XZ=     2.9153   YZ=     0.5444   ZZ=    30.7464
   Eigenvalues:    27.1795    31.2552    40.3067
     70  H    Isotropic =    32.2791   Anisotropy =    11.3714
   XX=    31.2076   YX=     4.1112   ZX=    -2.6161
   XY=     2.6881   YY=    26.3856   ZY=    -2.4746
   XZ=    -0.7896   YZ=     0.1199   ZZ=    39.2440
   Eigenvalues:    24.6238    32.3533    39.8600
     71  H    Isotropic =    31.7822   Anisotropy =    16.0785
   XX=    28.5218   YX=     2.9440   ZX=     6.8566
   XY=     2.3700   YY=    28.9033   ZY=     2.5104
   XZ=     5.8822   YZ=     4.4420   ZZ=    37.9215
   Eigenvalues:    25.0649    27.7806    42.5012
     72  H    Isotropic =    31.9264   Anisotropy =     9.5929
   XX=    38.3135   YX=     0.3359   ZX=    -0.0276
   XY=     0.0136   YY=    28.7124   ZY=    -0.1669
   XZ=     0.4495   YZ=     0.9074   ZZ=    28.7532
   Eigenvalues:    28.3619    29.0955    38.3217
     73  H    Isotropic =    32.2624   Anisotropy =    14.5936
   XX=    30.8848   YX=     0.3513   ZX=    -7.9485
   XY=    -0.2051   YY=    29.5858   ZY=    -0.9451
   XZ=    -7.7307   YZ=    -1.5990   ZZ=    36.3167
   Eigenvalues:    25.1975    29.5983    41.9915
     74  H    Isotropic =    31.3661   Anisotropy =    10.1918
   XX=    36.6287   YX=     2.7497   ZX=     2.6748
   XY=     1.4677   YY=    30.5789   ZY=     1.7443
   XZ=     2.8782   YZ=     1.4171   ZZ=    26.8907
   Eigenvalues:    25.9190    30.0186    38.1607
     75  H    Isotropic =    31.2508   Anisotropy =    11.9749
   XX=    27.4578   YX=    -2.2069   ZX=    -3.2840
   XY=    -2.2810   YY=    32.3843   ZY=     4.3799
   XZ=    -2.2198   YZ=     5.5368   ZZ=    33.9102
   Eigenvalues:    26.3837    28.1346    39.2340
     76  H    Isotropic =    30.5274   Anisotropy =    11.8869
   XX=    28.3356   YX=    -2.3360   ZX=     0.6961
   XY=    -1.6880   YY=    38.0075   ZY=    -0.2833
   XZ=     0.9076   YZ=    -0.9238   ZZ=    25.2391
   Eigenvalues:    25.0427    28.0875    38.4519
     77  H    Isotropic =    30.5630   Anisotropy =    11.8880
   XX=    37.8211   YX=    -2.6140   ZX=    -1.8223
   XY=    -1.8866   YY=    27.9963   ZY=    -0.5696
   XZ=    -1.4027   YZ=    -0.2430   ZZ=    25.8717
   Eigenvalues:    25.4347    27.7661    38.4884
     78  H    Isotropic =    30.6179   Anisotropy =     7.8712
   XX=    28.7325   YX=    -2.5125   ZX=     1.8328
   XY=    -2.6527   YY=    28.2992   ZY=    -0.4980
   XZ=     2.2306   YZ=    -1.5411   ZZ=    34.8222
   Eigenvalues:    25.8756    30.1128    35.8654
     79  H    Isotropic =    31.9674   Anisotropy =    11.2679
   XX=    33.8171   YX=     3.1975   ZX=     5.3907
   XY=     2.8465   YY=    31.1996   ZY=     2.6267
   XZ=     3.6054   YZ=     4.1428   ZZ=    30.8856
   Eigenvalues:    27.1672    29.2558    39.4793
     80  H    Isotropic =    30.7170   Anisotropy =    14.0340
   XX=    27.0543   YX=     0.7761   ZX=    -1.2571
   XY=     0.5849   YY=    39.6757   ZY=    -2.4540
   XZ=    -2.0199   YZ=    -1.9463   ZZ=    25.4208
   Eigenvalues:    24.2505    27.8275    40.0730
     81  H    Isotropic =    30.9376   Anisotropy =    10.6186
   XX=    31.4148   YX=    -0.6741   ZX=    -4.0685
   XY=    -1.3369   YY=    32.1380   ZY=     4.7045
   XZ=    -5.2294   YZ=     5.0853   ZZ=    29.2599
   Eigenvalues:    24.0454    30.7507    38.0167
     82  H    Isotropic =    29.8519   Anisotropy =    10.0248
   XX=    28.9344   YX=     2.5896   ZX=     2.1168
   XY=     2.2199   YY=    29.5569   ZY=     4.1577
   XZ=     2.1831   YZ=     5.4787   ZZ=    31.0644
   Eigenvalues:    25.3611    27.6595    36.5352
     83  H    Isotropic =    29.7155   Anisotropy =     9.8999
   XX=    28.6821   YX=     2.8643   ZX=    -1.9486
   XY=     2.3836   YY=    29.8337   ZY=    -4.1035
   XZ=    -1.9755   YZ=    -5.3003   ZZ=    30.6306
   Eigenvalues:    25.3510    27.4800    36.3154
     84  H    Isotropic =    24.6998   Anisotropy =    15.6246
   XX=    31.9669   YX=     1.4850   ZX=     5.7789
   XY=     0.7013   YY=    21.5840   ZY=    -0.3032
   XZ=     7.6247   YZ=    -0.3399   ZZ=    20.5484
   Eigenvalues:    17.3204    21.6628    35.1161
     85  H    Isotropic =    25.4973   Anisotropy =     5.8401
   XX=    26.9607   YX=    -1.8185   ZX=     1.6750
   XY=    -1.1205   YY=    27.9772   ZY=    -0.3051
   XZ=     2.1523   YZ=    -1.0254   ZZ=    21.5539
   Eigenvalues:    20.9398    26.1614    29.3907
     86  H    Isotropic =    26.5971   Anisotropy =     8.2360
   XX=    28.5955   YX=     1.1883   ZX=     4.9753
   XY=     1.1826   YY=    27.8965   ZY=     0.5525
   XZ=     5.1878   YZ=     0.5944   ZZ=    23.2994
   Eigenvalues:    20.2152    27.4883    32.0877
     87  H    Isotropic =    30.8486   Anisotropy =     9.6514
   XX=    36.5656   YX=    -3.3521   ZX=     1.3228
   XY=    -1.0204   YY=    29.0351   ZY=    -0.6641
   XZ=     1.1392   YZ=     0.9496   ZZ=    26.9452
   Eigenvalues:    26.6984    28.5646    37.2829
     88  H    Isotropic =    32.2620   Anisotropy =    12.6869
   XX=    26.0757   YX=     1.7707   ZX=    -3.0271
   XY=     2.0540   YY=    35.0604   ZY=    -4.3587
   XZ=    -1.1751   YZ=    -5.2508   ZZ=    35.6498
   Eigenvalues:    25.5243    30.5418    40.7199
     89  H    Isotropic =    33.0922   Anisotropy =    11.4547
   XX=    40.4385   YX=     1.7363   ZX=    -2.0245
   XY=     2.0331   YY=    27.8121   ZY=     2.1203
   XZ=     2.1726   YZ=     2.0274   ZZ=    31.0260
   Eigenvalues:    26.5944    31.9536    40.7287
     90  H    Isotropic =    32.6467   Anisotropy =    13.5849
   XX=    37.7441   YX=    -3.9982   ZX=    -5.2139
   XY=    -3.3897   YY=    30.8051   ZY=     2.7225
   XZ=    -3.8604   YZ=     3.3719   ZZ=    29.3910
   Eigenvalues:    26.7087    29.5281    41.7033
     91  H    Isotropic =    32.3740   Anisotropy =    14.4908
   XX=    26.9572   YX=     1.2106   ZX=     0.5775
   XY=     1.1679   YY=    28.1880   ZY=    -0.7694
   XZ=     0.9188   YZ=    -0.4117   ZZ=    41.9769
   Eigenvalues:    26.1769    28.9106    42.0346
     92  H    Isotropic =    30.7144   Anisotropy =    13.0309
   XX=    30.0056   YX=    -4.5335   ZX=     1.6974
   XY=    -6.2390   YY=    36.2595   ZY=    -0.7747
   XZ=     1.6406   YZ=     0.9892   ZZ=    25.8782
   Eigenvalues:    24.7811    27.9605    39.4017
     93  H    Isotropic =    30.8100   Anisotropy =    14.0736
   XX=    27.3245   YX=     6.1224   ZX=    -3.4684
   XY=     4.9242   YY=    34.2312   ZY=    -4.8411
   XZ=    -2.3737   YZ=    -3.8002   ZZ=    30.8743
   Eigenvalues:    24.2176    28.0200    40.1924
     94  H    Isotropic =    32.3086   Anisotropy =    18.2175
   XX=    27.4086   YX=     5.6579   ZX=     1.8997
   XY=     5.8432   YY=    40.4268   ZY=     4.9702
   XZ=     2.0658   YZ=     4.9307   ZZ=    29.0903
   Eigenvalues:    25.2276    27.2446    44.4536
     95  H    Isotropic =    32.5413   Anisotropy =    10.7401
   XX=    39.6882   YX=     0.5932   ZX=     0.0563
   XY=     0.0345   YY=    31.0722   ZY=     0.4050
   XZ=     0.1971   YZ=     0.6333   ZZ=    26.8633
   Eigenvalues:    26.7996    31.1229    39.7013
     96  H    Isotropic =    32.5384   Anisotropy =    12.9908
   XX=    33.7760   YX=    -4.1402   ZX=    -4.2379
   XY=    -4.2889   YY=    34.5765   ZY=     3.8792
   XZ=    -3.9194   YZ=     4.2966   ZZ=    29.2626
   Eigenvalues:    26.4581    29.9581    41.1989
     97  H    Isotropic =    32.4584   Anisotropy =    14.4647
   XX=    27.8153   YX=     2.3106   ZX=     5.1276
   XY=     2.0293   YY=    30.1603   ZY=     2.3213
   XZ=     4.7605   YZ=     2.9610   ZZ=    39.3995
   Eigenvalues:    25.6632    29.6105    42.1015
     98  H    Isotropic =    31.6171   Anisotropy =    11.1119
   XX=    30.1888   YX=     3.6148   ZX=     2.6119
   XY=     2.5505   YY=    26.0492   ZY=     1.7011
   XZ=     0.8580   YZ=    -1.0713   ZZ=    38.6132
   Eigenvalues:    24.3850    31.4412    39.0250
     99  H    Isotropic =    32.8380   Anisotropy =    11.2616
   XX=    34.1576   YX=    -6.0109   ZX=    -2.7455
   XY=    -5.6210   YY=    33.7133   ZY=     1.0976
   XZ=    -3.2612   YZ=    -0.5407   ZZ=    30.6431
   Eigenvalues:    27.0080    31.1602    40.3457
    100  H    Isotropic =    31.4556   Anisotropy =     8.4633
   XX=    37.0967   YX=     0.4387   ZX=     0.1482
   XY=    -0.2920   YY=    28.5878   ZY=     0.3729
   XZ=    -0.2618   YZ=    -0.4913   ZZ=    28.6821
   Eigenvalues:    28.5591    28.7098    37.0978
    101  H    Isotropic =    30.9145   Anisotropy =    15.1216
   XX=    28.7345   YX=     3.4956   ZX=    -7.4124
   XY=     2.5899   YY=    28.9770   ZY=    -2.9230
   XZ=    -5.3076   YZ=    -4.8769   ZZ=    35.0321
   Eigenvalues:    24.6794    27.0686    40.9956
    102  H    Isotropic =    31.6021   Anisotropy =    10.0946
   XX=    36.7720   YX=     3.0452   ZX=    -2.2878
   XY=     1.7246   YY=    31.3892   ZY=    -1.4457
   XZ=    -2.7049   YZ=    -0.9910   ZZ=    26.6451
   Eigenvalues:    25.9768    30.4976    38.3318
    103  H    Isotropic =    32.2199   Anisotropy =    14.5359
   XX=    30.4817   YX=    -0.3363   ZX=     7.8839
   XY=    -0.7882   YY=    29.4955   ZY=     0.5262
   XZ=     7.5525   YZ=     1.1152   ZZ=    36.6825
   Eigenvalues:    25.0706    29.6786    41.9105
    104  H    Isotropic =    31.1903   Anisotropy =    12.1212
   XX=    27.3217   YX=    -2.5088   ZX=     3.0909
   XY=    -2.4760   YY=    33.1127   ZY=    -4.4230
   XZ=     2.1272   YZ=    -5.6918   ZZ=    33.1364
   Eigenvalues:    26.2296    28.0701    39.2711
    105  H    Isotropic =    30.5985   Anisotropy =     7.8282
   XX=    28.8312   YX=    -2.4344   ZX=    -1.9333
   XY=    -2.5019   YY=    28.0716   ZY=     0.1060
   XZ=    -2.3490   YZ=     1.0977   ZZ=    34.8927
   Eigenvalues:    25.8476    30.1305    35.8173
    106  H    Isotropic =    30.5433   Anisotropy =    11.8235
   XX=    37.9122   YX=    -2.3907   ZX=     1.5918
   XY=    -1.6095   YY=    27.8226   ZY=     0.7858
   XZ=     1.2467   YZ=     0.4292   ZZ=    25.8953
   Eigenvalues:    25.4027    27.8016    38.4257
    107  H    Isotropic =    30.4818   Anisotropy =    11.9777
   XX=    28.3656   YX=    -2.6662   ZX=    -0.8550
   XY=    -1.9709   YY=    37.7567   ZY=     0.9975
   XZ=    -1.0347   YZ=     1.6185   ZZ=    25.3230
   Eigenvalues:    25.0180    27.9604    38.4669
    108  H    Isotropic =    30.9559   Anisotropy =    10.6520
   XX=    31.3078   YX=    -0.9202   ZX=     4.1119
   XY=    -1.6549   YY=    32.8285   ZY=    -4.4185
   XZ=     5.2937   YZ=    -4.7679   ZZ=    28.7314
   Eigenvalues:    24.0379    30.7726    38.0572
    109  H    Isotropic =    30.6942   Anisotropy =    14.1050
   XX=    26.8957   YX=     0.3946   ZX=     1.2490
   XY=     0.1699   YY=    39.3538   ZY=     3.4396
   XZ=     2.0485   YZ=     2.9307   ZZ=    25.8332
   Eigenvalues:    24.2178    27.7673    40.0975
    110  H    Isotropic =    31.9509   Anisotropy =    11.2986
   XX=    33.6954   YX=     3.6388   ZX=    -5.0973
   XY=     3.1721   YY=    31.8175   ZY=    -2.6601
   XZ=    -3.3096   YZ=    -4.1385   ZZ=    30.3397
   Eigenvalues:    27.1372    29.2321    39.4833
 End of Minotr F.D. properties file   721 does not exist.
 End of Minotr F.D. properties file   722 does not exist.
 End of Minotr F.D. properties file   788 does not exist.
 Hyperfine terms turned off by default for NAtoms > 100.

 **********************************************************************

            Population analysis using the SCF Density.

 **********************************************************************

 Orbital symmetries:
       Occupied  (A) (A) (A) (A) (A) (A) (A) (A) (A) (A) (A) (A)
                 (A) (A) (A) (A) (A) (A) (A) (A) (A) (A) (A) (A)
                 (A) (A) (A) (A) (A) (A) (A) (A) (A) (A) (A) (A)
                 (A) (A) (A) (A) (A) (A) (A) (A) (A) (A) (A) (A)
                 (A) (A) (A) (A) (A) (A) (A) (A) (A) (A) (A) (A)
                 (A) (A) (A) (A) (A) (A) (A) (A) (A) (A) (A) (A)
                 (A) (A) (A) (A) (A) (A) (A) (A) (A) (A) (A) (A)
                 (A) (A) (A) (A) (A) (A) (A) (A) (A) (A) (A) (A)
                 (A) (A) (A) (A) (A) (A) (A) (A) (A) (A) (A) (A)
                 (A) (A) (A) (A) (A) (A) (A) (A) (A) (A) (A) (A)
                 (A) (A) (A) (A) (A) (A) (A) (A) (A) (A) (A) (A)
                 (A) (A) (A) (A) (A) (A) (A) (A) (A) (A) (A) (A)
                 (A) (A) (A) (A) (A) (A) (A) (A) (A) (A) (A) (A)
                 (A) (A) (A) (A) (A) (A) (A) (A) (A) (A) (A) (A)
                 (A) (A) (A) (A) (A) (A) (A) (A) (A) (A) (A) (A)
                 (A) (A) (A) (A) (A) (A) (A) (A) (A) (A) (A) (A)
                 (A) (A) (A) (A) (A)
       Virtual   (A) (A) (A) (A) (A) (A) (A) (A) (A) (A) (A) (A)
                 (A) (A) (A) (A) (A) (A) (A) (A) (A) (A) (A) (A)
                 (A) (A) (A) (A) (A) (A) (A) (A) (A) (A) (A) (A)
                 (A) (A) (A) (A) (A) (A) (A) (A) (A) (A) (A) (A)
                 (A) (A) (A) (A) (A) (A) (A) (A) (A) (A) (A) (A)
                 (A) (A) (A) (A) (A) (A) (A) (A) (A) (A) (A) (A)
                 (A) (A) (A) (A) (A) (A) (A) (A) (A) (A) (A) (A)
                 (A) (A) (A) (A) (A) (A) (A) (A) (A) (A) (A) (A)
                 (A) (A) (A) (A) (A) (A) (A) (A) (A) (A) (A) (A)
                 (A) (A) (A) (A) (A) (A) (A) (A) (A) (A) (A) (A)
                 (A) (A) (A) (A) (A) (A) (A) (A) (A)
 The electronic state is 1-A.
 Alpha  occ. eigenvalues --  -20.31243 -20.30275 -20.25121 -20.24251 -19.91611
 Alpha  occ. eigenvalues --  -15.47716 -15.33684 -15.32980 -15.30106 -11.17154
 Alpha  occ. eigenvalues --  -11.16165 -11.10947 -11.10226 -11.10069 -11.09252
 Alpha  occ. eigenvalues --  -11.09043 -11.08968 -11.08660 -11.08112 -11.07486
 Alpha  occ. eigenvalues --  -11.07238 -11.07126 -11.06810 -11.06657 -11.06508
 Alpha  occ. eigenvalues --  -11.06146 -11.06048 -11.05767 -11.05653 -11.05562
 Alpha  occ. eigenvalues --  -11.05247 -11.05177 -11.05018 -11.05014 -11.04894
 Alpha  occ. eigenvalues --  -11.04822 -11.04546 -11.04063 -11.03921 -11.03672
 Alpha  occ. eigenvalues --  -11.03641 -11.03555 -11.03346 -11.03166 -11.01244
 Alpha  occ. eigenvalues --  -11.01211 -11.01189 -11.01066 -11.01000 -11.00824
 Alpha  occ. eigenvalues --  -11.00821 -11.00814 -11.00753 -11.00538  -1.38422
 Alpha  occ. eigenvalues --   -1.37499  -1.28297  -1.28091  -1.27302  -1.21160
 Alpha  occ. eigenvalues --   -1.20903  -1.18377  -1.11893  -1.09227  -1.08181
 Alpha  occ. eigenvalues --   -1.06928  -1.06224  -1.04493  -1.03251  -1.00659
 Alpha  occ. eigenvalues --   -1.00182  -0.98735  -0.98309  -0.97549  -0.96550
 Alpha  occ. eigenvalues --   -0.96369  -0.94579  -0.94013  -0.93472  -0.92216
 Alpha  occ. eigenvalues --   -0.91662  -0.91275  -0.91081  -0.89313  -0.87873
 Alpha  occ. eigenvalues --   -0.86282  -0.84614  -0.82923  -0.82455  -0.81571
 Alpha  occ. eigenvalues --   -0.80665  -0.79125  -0.78787  -0.78055  -0.77176
 Alpha  occ. eigenvalues --   -0.76746  -0.74402  -0.73464  -0.72261  -0.71813
 Alpha  occ. eigenvalues --   -0.70999  -0.70332  -0.69492  -0.69054  -0.66892
 Alpha  occ. eigenvalues --   -0.65801  -0.65529  -0.64498  -0.63958  -0.63035
 Alpha  occ. eigenvalues --   -0.62718  -0.61865  -0.61708  -0.61652  -0.60864
 Alpha  occ. eigenvalues --   -0.60743  -0.60198  -0.59716  -0.59278  -0.58905
 Alpha  occ. eigenvalues --   -0.58370  -0.58174  -0.57713  -0.57651  -0.57500
 Alpha  occ. eigenvalues --   -0.56942  -0.56490  -0.56286  -0.55730  -0.55632
 Alpha  occ. eigenvalues --   -0.55145  -0.54837  -0.54322  -0.54176  -0.54142
 Alpha  occ. eigenvalues --   -0.53670  -0.53477  -0.52881  -0.52594  -0.52117
 Alpha  occ. eigenvalues --   -0.52039  -0.51389  -0.51003  -0.50792  -0.50468
 Alpha  occ. eigenvalues --   -0.50266  -0.49763  -0.49479  -0.48924  -0.48551
 Alpha  occ. eigenvalues --   -0.48232  -0.47916  -0.47602  -0.47409  -0.47243
 Alpha  occ. eigenvalues --   -0.46771  -0.46299  -0.45892  -0.45577  -0.45458
 Alpha  occ. eigenvalues --   -0.45182  -0.44886  -0.44635  -0.44455  -0.44095
 Alpha  occ. eigenvalues --   -0.43686  -0.43506  -0.43325  -0.42995  -0.42417
 Alpha  occ. eigenvalues --   -0.42299  -0.42142  -0.41718  -0.41066  -0.40936
 Alpha  occ. eigenvalues --   -0.40373  -0.39963  -0.39528  -0.38687  -0.38082
 Alpha  occ. eigenvalues --   -0.37499  -0.36979  -0.36023  -0.35396  -0.34516
 Alpha  occ. eigenvalues --   -0.33796  -0.33697  -0.32982  -0.32236  -0.31518
 Alpha  occ. eigenvalues --   -0.26497  -0.26268  -0.25575  -0.21015  -0.19822
 Alpha  occ. eigenvalues --   -0.15490  -0.15314
 Alpha virt. eigenvalues --    0.27351   0.27766   0.28317   0.29844   0.30013
 Alpha virt. eigenvalues --    0.30820   0.46724   0.47424   0.48681   0.49155
 Alpha virt. eigenvalues --    0.50026   0.50383   0.50806   0.50968   0.52729
 Alpha virt. eigenvalues --    0.52918   0.54388   0.54565   0.55749   0.56030
 Alpha virt. eigenvalues --    0.56849   0.57536   0.58307   0.58425   0.58647
 Alpha virt. eigenvalues --    0.59415   0.60014   0.60347   0.60422   0.61261
 Alpha virt. eigenvalues --    0.61632   0.61875   0.62102   0.62563   0.63180
 Alpha virt. eigenvalues --    0.63435   0.63601   0.63942   0.64099   0.64466
 Alpha virt. eigenvalues --    0.64491   0.64767   0.64972   0.65173   0.65496
 Alpha virt. eigenvalues --    0.65647   0.65773   0.66138   0.66623   0.66913
 Alpha virt. eigenvalues --    0.67381   0.67727   0.67910   0.68145   0.68449
 Alpha virt. eigenvalues --    0.68932   0.69180   0.69259   0.69596   0.69878
 Alpha virt. eigenvalues --    0.69973   0.70073   0.70769   0.70878   0.71089
 Alpha virt. eigenvalues --    0.71360   0.71539   0.71696   0.71900   0.72569
 Alpha virt. eigenvalues --    0.72707   0.73275   0.73558   0.73943   0.74156
 Alpha virt. eigenvalues --    0.74379   0.74637   0.74962   0.75195   0.75298
 Alpha virt. eigenvalues --    0.75461   0.75570   0.75808   0.76290   0.76465
 Alpha virt. eigenvalues --    0.76793   0.77158   0.77264   0.77460   0.77767
 Alpha virt. eigenvalues --    0.77896   0.78253   0.78494   0.78666   0.79447
 Alpha virt. eigenvalues --    0.79576   0.79864   0.80235   0.80344   0.80609
 Alpha virt. eigenvalues --    0.80953   0.81537   0.81569   0.81850   0.82175
 Alpha virt. eigenvalues --    0.82870   0.83400   0.84095   0.84543   0.84842
 Alpha virt. eigenvalues --    0.84927   0.86743   0.86812   0.86857   0.88058
 Alpha virt. eigenvalues --    0.88898   0.90055   0.91386   0.92682   0.94817
 Alpha virt. eigenvalues --    0.94940   0.95734   0.98723   1.00819   1.01767
 Alpha virt. eigenvalues --    1.11290   1.12652   1.16637   1.16832
          Condensed to atoms (all electrons):
 Mulliken charges:
               1
     1  C   -0.073970
     2  C    0.000835
     3  C   -0.061549
     4  C   -0.090584
     5  C    0.087985
     6  C   -0.013749
     7  N   -0.286795
     8  C    0.018303
     9  C    0.128271
    10  C    0.040834
    11  C   -0.114889
    12  C   -0.105515
    13  C    0.027916
    14  N   -0.291217
    15  C   -0.014523
    16  C   -0.108234
    17  C   -0.101911
    18  C   -0.105238
    19  C   -0.019423
    20  C   -0.110489
    21  C   -0.066325
    22  C    0.319739
    23  O   -0.277142
    24  O   -0.255352
    25  C   -0.055712
    26  C   -0.078725
    27  C   -0.109907
    28  C    0.000151
    29  C   -0.071773
    30  C   -0.061241
    31  C   -0.092324
    32  C    0.087717
    33  C   -0.015020
    34  N   -0.287748
    35  C    0.021206
    36  C    0.128700
    37  C    0.040791
    38  C   -0.115721
    39  C   -0.104809
    40  C    0.028105
    41  N   -0.085466
    42  C   -0.007706
    43  C   -0.110767
    44  C   -0.102141
    45  C   -0.106738
    46  C   -0.012205
    47  C   -0.111582
    48  C   -0.067084
    49  C    0.320462
    50  O   -0.278761
    51  O   -0.254122
    52  C   -0.055662
    53  C   -0.078855
    54  O   -0.453872
    55  H    0.064274
    56  H    0.061839
    57  H    0.058107
    58  H    0.056410
    59  H    0.049679
    60  H    0.054723
    61  H    0.047300
    62  H    0.049645
    63  H    0.053310
    64  H    0.061383
    65  H    0.053082
    66  H    0.050559
    67  H    0.049539
    68  H    0.050717
    69  H    0.062890
    70  H    0.063988
    71  H    0.056902
    72  H    0.050805
    73  H    0.050476
    74  H    0.067929
    75  H    0.064190
    76  H    0.077041
    77  H    0.071788
    78  H    0.075007
    79  H    0.054480
    80  H    0.072025
    81  H    0.075221
    82  H    0.057127
    83  H    0.062254
    84  H    0.091076
    85  H    0.056158
    86  H    0.056611
    87  H    0.086548
    88  H    0.052305
    89  H    0.058577
    90  H    0.053897
    91  H    0.051026
    92  H    0.088819
    93  H    0.080631
    94  H    0.065433
    95  H    0.057203
    96  H    0.056560
    97  H    0.056997
    98  H    0.082763
    99  H    0.071002
   100  H    0.067409
   101  H    0.089040
   102  H    0.066089
   103  H    0.054665
   104  H    0.066777
   105  H    0.075873
   106  H    0.072891
   107  H    0.078806
   108  H    0.074948
   109  H    0.073321
   110  H    0.055712
 Sum of Mulliken charges =  -0.00000
 Mulliken charges with hydrogens summed into heavy atoms:
               1
     1  C   -0.009695
     2  C    0.000835
     3  C    0.000289
     4  C   -0.032477
     5  C    0.087985
     6  C   -0.013749
     7  N   -0.286795
     8  C    0.018303
     9  C    0.128271
    10  C    0.097245
    11  C   -0.010486
    12  C   -0.008570
    13  C    0.027916
    14  N   -0.291217
    15  C    0.100171
    16  C   -0.004593
    17  C   -0.001655
    18  C    0.021641
    19  C    0.088284
    20  C    0.007917
    21  C   -0.002136
    22  C    0.319739
    23  O   -0.277142
    24  O   -0.255352
    25  C    0.168125
    26  C    0.123000
    27  C    0.009475
    28  C    0.000151
    29  C    0.019303
    30  C   -0.005083
    31  C   -0.035713
    32  C    0.087717
    33  C   -0.015020
    34  N   -0.287748
    35  C    0.021206
    36  C    0.128700
    37  C    0.127340
    38  C   -0.004840
    39  C    0.000114
    40  C    0.028105
    41  N   -0.085466
    42  C    0.161744
    43  C    0.011869
    44  C    0.011416
    45  C    0.047027
    46  C    0.144244
    47  C    0.009172
    48  C   -0.000306
    49  C    0.320462
    50  O   -0.278761
    51  O   -0.254122
    52  C    0.171908
    53  C    0.125125
    54  O   -0.453872
 Electronic spatial extent (au):  <R**2>=          47182.4557
 Charge=             -0.0000 electrons
 Dipole moment (field-independent basis, Debye):
    X=             -2.1207    Y=              1.1586    Z=             -6.0455  Tot=              6.5106
 Quadrupole moment (field-independent basis, Debye-Ang):
   XX=           -281.7413   YY=           -292.1074   ZZ=           -300.6422
   XY=             -9.8001   XZ=              7.6342   YZ=              8.0981
 Traceless Quadrupole moment (field-independent basis, Debye-Ang):
   XX=              9.7557   YY=             -0.6104   ZZ=             -9.1452
   XY=             -9.8001   XZ=              7.6342   YZ=              8.0981
 Octapole moment (field-independent basis, Debye-Ang**2):
  XXX=           -181.1190  YYY=             -6.7260  ZZZ=            -11.5930  XYY=            -12.6848
  XXY=            -31.5033  XXZ=           -109.5359  XZZ=             -0.2690  YZZ=              6.8775
  YYZ=            -29.5666  XYZ=            -36.8877
 Hexadecapole moment (field-independent basis, Debye-Ang**3):
 XXXX=         -46019.0135 YYYY=          -8145.6180 ZZZZ=          -4205.9187 XXXY=           -929.4526
 XXXZ=            -47.1069 YYYX=           -420.7685 YYYZ=             71.0831 ZZZX=              1.6920
 ZZZY=              4.8760 XXYY=          -8296.2948 XXZZ=          -8263.2218 YYZZ=          -2167.6828
 XXYZ=            106.2975 YYXZ=             82.8950 ZZXY=           -126.5291
 N-N= 7.821056101344D+03 E-N=-2.101863825150D+04  KE= 2.279177838983D+03
 ******************************Gaussian NBO Version 3.1******************************
             N A T U R A L   A T O M I C   O R B I T A L   A N D
          N A T U R A L   B O N D   O R B I T A L   A N A L Y S I S
 ******************************Gaussian NBO Version 3.1******************************
       /RESON  / : Allow strongly delocalized NBO set
       /NLMO   / : Form Natural Localized Molecular Orbitals
       /NMR /    : Analyze NMR Sheilding Tensor 

 Analyzing the SCF density

 Job title: pleiokomenine_C_1a                                              

 Storage needed:    355564 in NPA,    438187 in NBO,   2133784 in NLMO ( 104796000 available)
 GSVD:  LWork=     -108884 too small for GESVD, short by      536270 words or      536270 for optimal perf.


 NATURAL POPULATIONS:  Natural atomic orbital occupancies 
                                                          
   NAO  Atom  No  lang   Type(AO)    Occupancy      Energy
 ----------------------------------------------------------
     1    C    1  S      Cor( 1S)     1.99993     -10.93514
     2    C    1  S      Val( 2S)     1.07958      -0.16660
     3    C    1  px     Val( 2p)     0.99185       0.12446
     4    C    1  py     Val( 2p)     0.98603       0.16004
     5    C    1  pz     Val( 2p)     0.99789       0.06834
 
     6    C    2  S      Cor( 1S)     1.99990     -10.94446
     7    C    2  S      Val( 2S)     1.07759      -0.17127
     8    C    2  px     Val( 2p)     0.95940       0.14287
     9    C    2  py     Val( 2p)     0.95882       0.18010
    10    C    2  pz     Val( 2p)     0.98962       0.07874
 
    11    C    3  S      Cor( 1S)     1.99994     -10.93620
    12    C    3  S      Val( 2S)     1.08489      -0.17114
    13    C    3  px     Val( 2p)     0.98243       0.12934
    14    C    3  py     Val( 2p)     0.97356       0.16732
    15    C    3  pz     Val( 2p)     0.99194       0.07173
 
    16    C    4  S      Cor( 1S)     1.99993     -10.93070
    17    C    4  S      Val( 2S)     1.07168      -0.16302
    18    C    4  px     Val( 2p)     0.99826       0.12247
    19    C    4  py     Val( 2p)     0.98423       0.16259
    20    C    4  pz     Val( 2p)     1.03364       0.05802
 
    21    C    5  S      Cor( 1S)     1.99985     -10.97854
    22    C    5  S      Val( 2S)     1.05986      -0.17580
    23    C    5  px     Val( 2p)     0.90595       0.14940
    24    C    5  py     Val( 2p)     0.97240       0.14587
    25    C    5  pz     Val( 2p)     0.95085       0.07398
 
    26    C    6  S      Cor( 1S)     1.99990     -10.93748
    27    C    6  S      Val( 2S)     1.08361      -0.17905
    28    C    6  px     Val( 2p)     0.96591       0.14183
    29    C    6  py     Val( 2p)     0.96587       0.15672
    30    C    6  pz     Val( 2p)     1.00980       0.07206
 
    31    N    7  S      Cor( 1S)     1.99998     -15.26216
    32    N    7  S      Val( 2S)     1.40501      -0.58797
    33    N    7  px     Val( 2p)     1.44105      -0.12547
    34    N    7  py     Val( 2p)     1.11079       0.01309
    35    N    7  pz     Val( 2p)     1.31852      -0.07775
 
    36    C    8  S      Cor( 1S)     1.99996     -11.00060
    37    C    8  S      Val( 2S)     1.10929      -0.22589
    38    C    8  px     Val( 2p)     0.97968       0.08960
    39    C    8  py     Val( 2p)     0.95072       0.11238
    40    C    8  pz     Val( 2p)     0.94016       0.11288
 
    41    C    9  S      Cor( 1S)     1.99996     -11.04517
    42    C    9  S      Val( 2S)     1.11183      -0.25102
    43    C    9  px     Val( 2p)     0.92585       0.09649
    44    C    9  py     Val( 2p)     0.85377       0.11648
    45    C    9  pz     Val( 2p)     0.93707       0.09548
 
    46    C   10  S      Cor( 1S)     1.99993     -11.01293
    47    C   10  S      Val( 2S)     1.09691      -0.21437
    48    C   10  px     Val( 2p)     0.97649       0.08998
    49    C   10  py     Val( 2p)     0.93716       0.09702
    50    C   10  pz     Val( 2p)     0.91510       0.11749
 
    51    C   11  S      Cor( 1S)     1.99994     -10.97678
    52    C   11  S      Val( 2S)     1.10374      -0.21117
    53    C   11  px     Val( 2p)     1.00412       0.08704
    54    C   11  py     Val( 2p)     0.98491       0.09045
    55    C   11  pz     Val( 2p)     0.99241       0.08524
 
    56    C   12  S      Cor( 1S)     1.99996     -10.97540
    57    C   12  S      Val( 2S)     1.09113      -0.19746
    58    C   12  px     Val( 2p)     1.00320       0.08960
    59    C   12  py     Val( 2p)     0.98343       0.09043
    60    C   12  pz     Val( 2p)     0.99596       0.09341
 
    61    C   13  S      Cor( 1S)     1.99998     -11.00122
    62    C   13  S      Val( 2S)     1.10488      -0.22486
    63    C   13  px     Val( 2p)     0.94292       0.11187
    64    C   13  py     Val( 2p)     0.94333       0.11441
    65    C   13  pz     Val( 2p)     0.95871       0.10160
 
    66    N   14  S      Cor( 1S)     1.99999     -15.23399
    67    N   14  S      Val( 2S)     1.42238      -0.57589
    68    N   14  px     Val( 2p)     1.39272      -0.08594
    69    N   14  py     Val( 2p)     1.06290       0.04981
    70    N   14  pz     Val( 2p)     1.40165      -0.09118
 
    71    C   15  S      Cor( 1S)     1.99994     -11.00497
    72    C   15  S      Val( 2S)     1.06916      -0.18628
    73    C   15  px     Val( 2p)     1.00890       0.08564
    74    C   15  py     Val( 2p)     0.90394       0.11191
    75    C   15  pz     Val( 2p)     0.97910       0.09432
 
    76    C   16  S      Cor( 1S)     1.99997     -10.97421
    77    C   16  S      Val( 2S)     1.08093      -0.18760
    78    C   16  px     Val( 2p)     0.99856       0.09551
    79    C   16  py     Val( 2p)     1.01285       0.08893
    80    C   16  pz     Val( 2p)     0.98228       0.09455
 
    81    C   17  S      Cor( 1S)     1.99996     -10.97742
    82    C   17  S      Val( 2S)     1.08581      -0.19286
    83    C   17  px     Val( 2p)     1.00835       0.09044
    84    C   17  py     Val( 2p)     0.98070       0.09264
    85    C   17  pz     Val( 2p)     0.99324       0.09341
 
    86    C   18  S      Cor( 1S)     1.99995     -10.96973
    87    C   18  S      Val( 2S)     1.09210      -0.19029
    88    C   18  px     Val( 2p)     0.99848       0.09296
    89    C   18  py     Val( 2p)     0.98967       0.10283
    90    C   18  pz     Val( 2p)     0.99518       0.09539
 
    91    C   19  S      Cor( 1S)     1.99994     -10.99487
    92    C   19  S      Val( 2S)     1.07169      -0.17953
    93    C   19  px     Val( 2p)     0.94616       0.12244
    94    C   19  py     Val( 2p)     0.94784       0.09329
    95    C   19  pz     Val( 2p)     1.00043       0.09003
 
    96    C   20  S      Cor( 1S)     1.99992     -10.98132
    97    C   20  S      Val( 2S)     1.09959      -0.20910
    98    C   20  px     Val( 2p)     0.99579       0.08763
    99    C   20  py     Val( 2p)     0.95189       0.09460
   100    C   20  pz     Val( 2p)     1.02656       0.07765
 
   101    C   21  S      Cor( 1S)     1.99994     -11.00500
   102    C   21  S      Val( 2S)     1.11082      -0.23561
   103    C   21  px     Val( 2p)     0.98130       0.07798
   104    C   21  py     Val( 2p)     0.98605       0.07838
   105    C   21  pz     Val( 2p)     1.00604       0.06762
 
   106    C   22  S      Cor( 1S)     1.99991     -11.10873
   107    C   22  S      Val( 2S)     1.05490      -0.25759
   108    C   22  px     Val( 2p)     0.88119       0.09186
   109    C   22  py     Val( 2p)     0.78768       0.15868
   110    C   22  pz     Val( 2p)     0.87326       0.03471
 
   111    O   23  S      Cor( 1S)     1.99999     -20.09509
   112    O   23  S      Val( 2S)     1.80814      -1.05494
   113    O   23  px     Val( 2p)     1.41519      -0.15319
   114    O   23  py     Val( 2p)     1.75003      -0.27596
   115    O   23  pz     Val( 2p)     1.33797      -0.14213
 
   116    O   24  S      Cor( 1S)     1.99999     -20.21213
   117    O   24  S      Val( 2S)     1.73004      -1.02467
   118    O   24  px     Val( 2p)     1.60013      -0.26437
   119    O   24  py     Val( 2p)     1.24356      -0.10475
   120    O   24  pz     Val( 2p)     1.69325      -0.30560
 
   121    C   25  S      Cor( 1S)     1.99984     -11.04258
   122    C   25  S      Val( 2S)     1.07696      -0.22422
   123    C   25  px     Val( 2p)     0.92608       0.06935
   124    C   25  py     Val( 2p)     0.98932       0.04446
   125    C   25  pz     Val( 2p)     0.97312       0.05834
 
   126    C   26  S      Cor( 1S)     1.99992     -11.01065
   127    C   26  S      Val( 2S)     1.06514      -0.19102
   128    C   26  px     Val( 2p)     1.03318       0.06480
   129    C   26  py     Val( 2p)     0.93977       0.08439
   130    C   26  pz     Val( 2p)     0.97803       0.07944
 
   131    C   27  S      Cor( 1S)     1.99996     -10.96992
   132    C   27  S      Val( 2S)     1.08176      -0.17435
   133    C   27  px     Val( 2p)     0.99111       0.10703
   134    C   27  py     Val( 2p)     1.02369       0.09680
   135    C   27  pz     Val( 2p)     0.99104       0.10663
 
   136    C   28  S      Cor( 1S)     1.99990     -10.94484
   137    C   28  S      Val( 2S)     1.07756      -0.17175
   138    C   28  px     Val( 2p)     0.96219       0.13849
   139    C   28  py     Val( 2p)     0.95612       0.18430
   140    C   28  pz     Val( 2p)     0.99096       0.07643
 
   141    C   29  S      Cor( 1S)     1.99993     -10.93319
   142    C   29  S      Val( 2S)     1.08575      -0.16656
   143    C   29  px     Val( 2p)     0.98156       0.12907
   144    C   29  py     Val( 2p)     1.00258       0.16049
   145    C   29  pz     Val( 2p)     0.98091       0.07408
 
   146    C   30  S      Cor( 1S)     1.99994     -10.93977
   147    C   30  S      Val( 2S)     1.08367      -0.17382
   148    C   30  px     Val( 2p)     0.98145       0.12371
   149    C   30  py     Val( 2p)     0.97376       0.16731
   150    C   30  pz     Val( 2p)     0.99287       0.06610
 
   151    C   31  S      Cor( 1S)     1.99993     -10.93357
   152    C   31  S      Val( 2S)     1.07078      -0.16603
   153    C   31  px     Val( 2p)     1.00084       0.11615
   154    C   31  py     Val( 2p)     0.98157       0.16340
   155    C   31  pz     Val( 2p)     1.03748       0.05254
 
   156    C   32  S      Cor( 1S)     1.99985     -10.98269
   157    C   32  S      Val( 2S)     1.05975      -0.18001
   158    C   32  px     Val( 2p)     0.90509       0.14233
   159    C   32  py     Val( 2p)     0.97199       0.14486
   160    C   32  pz     Val( 2p)     0.95195       0.06902
 
   161    C   33  S      Cor( 1S)     1.99990     -10.94070
   162    C   33  S      Val( 2S)     1.08176      -0.18141
   163    C   33  px     Val( 2p)     0.96807       0.13624
   164    C   33  py     Val( 2p)     0.96094       0.15944
   165    C   33  pz     Val( 2p)     1.01881       0.06362
 
   166    N   34  S      Cor( 1S)     1.99998     -15.26892
   167    N   34  S      Val( 2S)     1.40415      -0.59465
   168    N   34  px     Val( 2p)     1.45783      -0.13911
   169    N   34  py     Val( 2p)     1.08783       0.01562
   170    N   34  pz     Val( 2p)     1.32660      -0.08919
 
   171    C   35  S      Cor( 1S)     1.99996     -11.01769
   172    C   35  S      Val( 2S)     1.11062      -0.24264
   173    C   35  px     Val( 2p)     0.98583       0.07274
   174    C   35  py     Val( 2p)     0.94120       0.09999
   175    C   35  pz     Val( 2p)     0.93998       0.09846
 
   176    C   36  S      Cor( 1S)     1.99996     -11.05608
   177    C   36  S      Val( 2S)     1.11162      -0.26166
   178    C   36  px     Val( 2p)     0.92681       0.08513
   179    C   36  py     Val( 2p)     0.86159       0.10247
   180    C   36  pz     Val( 2p)     0.92858       0.08784
 
   181    C   37  S      Cor( 1S)     1.99991     -11.03954
   182    C   37  S      Val( 2S)     1.12070      -0.26098
   183    C   37  px     Val( 2p)     0.98162       0.05851
   184    C   37  py     Val( 2p)     0.91802       0.07531
   185    C   37  pz     Val( 2p)     0.90671       0.08669
 
   186    C   38  S      Cor( 1S)     1.99994     -10.98681
   187    C   38  S      Val( 2S)     1.10454      -0.22186
   188    C   38  px     Val( 2p)     1.00609       0.07625
   189    C   38  py     Val( 2p)     0.98538       0.08074
   190    C   38  pz     Val( 2p)     0.99028       0.07539
 
   191    C   39  S      Cor( 1S)     1.99996     -10.98912
   192    C   39  S      Val( 2S)     1.09220      -0.21178
   193    C   39  px     Val( 2p)     1.00152       0.07689
   194    C   39  py     Val( 2p)     0.98490       0.07638
   195    C   39  pz     Val( 2p)     0.99411       0.08063
 
   196    C   40  S      Cor( 1S)     1.99998     -11.02345
   197    C   40  S      Val( 2S)     1.10503      -0.24638
   198    C   40  px     Val( 2p)     0.94811       0.08932
   199    C   40  py     Val( 2p)     0.94848       0.09187
   200    C   40  pz     Val( 2p)     0.94844       0.08252
 
   201    N   41  S      Cor( 1S)     1.99999     -15.41573
   202    N   41  S      Val( 2S)     1.40183      -0.65926
   203    N   41  px     Val( 2p)     1.22030      -0.11934
   204    N   41  py     Val( 2p)     1.13653      -0.08816
   205    N   41  pz     Val( 2p)     1.21499      -0.11766
 
   206    C   42  S      Cor( 1S)     1.99991     -11.03390
   207    C   42  S      Val( 2S)     1.08954      -0.23108
   208    C   42  px     Val( 2p)     1.02110       0.05418
   209    C   42  py     Val( 2p)     0.87657       0.07534
   210    C   42  pz     Val( 2p)     0.96938       0.07407
 
   211    C   43  S      Cor( 1S)     1.99997     -10.99825
   212    C   43  S      Val( 2S)     1.07896      -0.20911
   213    C   43  px     Val( 2p)     0.99998       0.07288
   214    C   43  py     Val( 2p)     1.02356       0.06007
   215    C   43  pz     Val( 2p)     0.97866       0.07167
 
   216    C   44  S      Cor( 1S)     1.99996     -10.99544
   217    C   44  S      Val( 2S)     1.08470      -0.21011
   218    C   44  px     Val( 2p)     1.00982       0.07171
   219    C   44  py     Val( 2p)     0.98005       0.07478
   220    C   44  pz     Val( 2p)     0.99519       0.07394
 
   221    C   45  S      Cor( 1S)     1.99994     -10.98735
   222    C   45  S      Val( 2S)     1.09355      -0.20783
   223    C   45  px     Val( 2p)     1.00066       0.07710
   224    C   45  py     Val( 2p)     0.97787       0.08947
   225    C   45  pz     Val( 2p)     1.00899       0.07519
 
   226    C   46  S      Cor( 1S)     1.99992     -11.02655
   227    C   46  S      Val( 2S)     1.09076      -0.22522
   228    C   46  px     Val( 2p)     0.91715       0.08912
   229    C   46  py     Val( 2p)     0.95042       0.06396
   230    C   46  pz     Val( 2p)     1.00347       0.05868
 
   231    C   47  S      Cor( 1S)     1.99992     -10.99604
   232    C   47  S      Val( 2S)     1.09906      -0.22380
   233    C   47  px     Val( 2p)     0.99173       0.07385
   234    C   47  py     Val( 2p)     0.95701       0.07864
   235    C   47  pz     Val( 2p)     1.02762       0.06056
 
   236    C   48  S      Cor( 1S)     1.99995     -11.01537
[...]
                         Standard Origin              Atomic Origin
 NLMO      Total    Paramagnetic  Diamagnetic   Paramagnetic  Diamagnetic
   89      -0.3370        0.5193      -0.8563        -1.0894       0.7524
   95      -0.1517        1.0250      -1.1767        -1.0076       0.8559
   97       2.5231       -3.2315       5.7546         1.7097       0.8135
   98      -0.3641        0.7753      -1.1394        -0.3016      -0.0625
   99       0.4721       -0.8240       1.2961        -0.1755       0.6475
  102       0.3928       -2.0570       2.4498        -0.3943       0.7871
  103      -0.2268       -0.4300       0.2032        -1.0156       0.7889
  105       1.1069        1.3217      -0.2148         0.2257       0.8813
  106       0.0738       -1.3791       1.4529        -0.8398       0.9136
  108      26.0963        0.5629      25.5333         0.2960      25.8003
  109       1.6312        1.9657      -0.3345        -0.1583       1.7895
 Sum       31.2166       -1.7517      32.9683        -2.7508      33.9674

 Contributions to Isotropic shielding for atom   97 (    32.4584 ppm):
                         Standard Origin              Atomic Origin
 NLMO      Total    Paramagnetic  Diamagnetic   Paramagnetic  Diamagnetic
   94      -0.0338        0.9924      -1.0261        -0.7235       0.6897
   97       1.5019       -0.2121       1.7139         0.7305       0.7714
   98      -0.3932        1.8176      -2.2108        -1.4427       1.0495
  102       0.2469       -0.9560       1.2030         0.2588      -0.0118
  105       0.0410        4.6623      -4.6213        -0.9092       0.9502
  108       2.3407        0.8468       1.4939         0.5654       1.7753
  109      26.4279       -0.3114      26.7393         0.6309      25.7970
  117      -0.0244       -1.0304       1.0060        -0.8735       0.8491
 Sum       30.1071        5.8092      24.2978        -1.7634      31.8704

 Contributions to Isotropic shielding for atom   98 (    31.6171 ppm):
                         Standard Origin              Atomic Origin
 NLMO      Total    Paramagnetic  Diamagnetic   Paramagnetic  Diamagnetic
   71      -1.3107        0.7502      -2.0609        -2.4125       1.1017
   80      -0.1602        1.2603      -1.4205        -1.2558       1.0956
   85       2.6093       -2.4028       5.0121         1.7692       0.8401
  100       0.9229       -1.3239       2.2469         0.2728       0.6501
  110       0.3725        1.2509      -0.8784        -0.5292       0.9017
  111      25.6034        0.2556      25.3477         0.4650      25.1384
  112       1.6954        1.7833      -0.0879        -0.3137       2.0091
  114      -0.0386       -1.8384       1.7998        -1.1346       1.0960
  121       0.0724       -1.1607       1.2331        -0.7206       0.7929
 Sum       29.7663       -1.4256      31.1918        -3.8594      33.6257

 Contributions to Isotropic shielding for atom   99 (    32.8380 ppm):
                         Standard Origin              Atomic Origin
 NLMO      Total    Paramagnetic  Diamagnetic   Paramagnetic  Diamagnetic
   71      -0.4304        0.3703      -0.8007        -1.1690       0.7386
   83      -0.3835        1.2532      -1.6367        -0.9910       0.6075
   85       1.6995       -0.6159       2.3154         0.9662       0.7333
   87      -0.3779        0.1164      -0.4944        -1.2164       0.8385
   89      -0.1283        0.1554      -0.2837        -1.0475       0.9191
  100       0.6652       -0.9807       1.6459         0.6194       0.0458
  110      -0.1391        3.6238      -3.7630        -0.7988       0.6596
  111       2.1142        1.7990       0.3151         0.1802       1.9340
  112      26.0665       -0.1031      26.1696         0.5804      25.4861
  118       0.7367       -1.0873       1.8239        -0.0900       0.8267
  120       1.4602       -0.6940       2.1542         0.5442       0.9160
  121      -0.2087       -3.6809       3.4721        -1.1832       0.9744
  124       0.0415       -1.5881       1.6296        -0.4519       0.4933
  191      -0.6619        1.4893      -2.1512         0.2017      -0.8636
 Sum       30.4537        0.0575      30.3962        -3.8557      34.3095

 Contributions to Isotropic shielding for atom  100 (    31.4556 ppm):
                         Standard Origin              Atomic Origin
 NLMO      Total    Paramagnetic  Diamagnetic   Paramagnetic  Diamagnetic
   84      -0.2724        0.8253      -1.0977        -1.0367       0.7643
   88      -0.3479        1.0898      -1.4377        -1.0791       0.7312
   99      -0.6312        1.4905      -2.1218        -1.5354       0.9041
  107      -0.2469       -2.3704       2.1235        -0.7758       0.5290
  110       1.0272       -0.4345       1.4616         0.1482       0.8790
  112       0.0993        1.1424      -1.0430        -0.8356       0.9349
  113      26.6989        0.1204      26.5784         1.1318      25.5671
  114       1.1426        3.5455      -2.4030        -0.7607       1.9033
  116      -0.4189       -3.0915       2.6726        -0.4410       0.0221
  120       0.6471       -0.6442       1.2913         0.2262       0.4209
  121       0.2658       -2.0089       2.2747        -0.7088       0.9746
  191      -0.6284        1.1745      -1.8030         0.2605      -0.8890
 Sum       27.3352        0.8391      26.4962        -5.4063      32.7415

 Contributions to Isotropic shielding for atom  101 (    30.9145 ppm):
                         Standard Origin              Atomic Origin
 NLMO      Total    Paramagnetic  Diamagnetic   Paramagnetic  Diamagnetic
   71      -0.2918        0.1835      -0.4753        -1.1313       0.8395
   84      -0.1815        0.6507      -0.8322        -1.0360       0.8545
   99      -0.7444        1.1595      -1.9039        -1.4155       0.6711
  101       0.0613        1.0844      -1.0231        -0.9601       1.0214
  104       0.0154       -1.6316       1.6470        -0.7469       0.7623
  110       1.1298       -0.6385       1.7683         0.1595       0.9703
  111      -0.0980        1.3342      -1.4322        -1.2746       1.1766
  112       0.3969        1.0811      -0.6842        -0.3081       0.7050
  113       0.8296        3.2609      -2.4313        -0.9228       1.7524
  114      25.9305        0.3932      25.5373         1.0302      24.9002
  121       0.0844       -1.0488       1.1332        -0.5350       0.6194
  195       0.4072       -1.3688       1.7760         1.2287      -0.8215
 Sum       27.5393        4.4597      23.0796        -5.9119      33.4512

 Contributions to Isotropic shielding for atom  102 (    31.6021 ppm):
                         Standard Origin              Atomic Origin
 NLMO      Total    Paramagnetic  Diamagnetic   Paramagnetic  Diamagnetic
   83      -0.2872        0.8281      -1.1152        -1.1117       0.8245
   87       0.3171       -0.7430       1.0601         0.0305       0.2866
   89      -0.4896        0.7363      -1.2260        -1.1054       0.6157
   97      -0.3432        1.6903      -2.0335        -1.0695       0.7263
   98       1.4856       -0.1121       1.5977         0.5511       0.9345
  107      -0.3526       -3.2917       2.9391        -0.7150       0.3624
  113      -0.3535       -2.7851       2.4316        -0.2164      -0.1371
  115       0.6052        1.6338      -1.0286        -0.2449       0.8501
  116      26.4277       -0.4702      26.8979         0.7843      25.6434
  117       1.4539        4.7731      -3.3191        -0.4542       1.9081
  118      -0.6187        0.8247      -1.4434        -1.7131       1.0944
  120       0.3045       -1.3868       1.6913        -0.5742       0.8787
  121       0.5448       -1.8511       2.3960        -1.1620       1.7068
  191      -0.5561        0.7023      -1.2584         0.3519      -0.9080
 Sum       28.1379        0.5486      27.5893        -6.6486      34.7864

 Contributions to Isotropic shielding for atom  103 (    32.2199 ppm):
                         Standard Origin              Atomic Origin
 NLMO      Total    Paramagnetic  Diamagnetic   Paramagnetic  Diamagnetic
   86      -0.1956        0.7664      -0.9619        -1.0088       0.8132
   87       0.4350       -0.7848       1.2198         0.2306       0.2044
   94      -0.1419        1.3032      -1.4451        -0.9987       0.8568
   97      -0.2780        1.7173      -1.9953        -1.0958       0.8179
   98       1.7612       -0.2075       1.9687         0.7746       0.9866
  107      -0.0572       -1.1632       1.1060        -0.6674       0.6102
  109      -0.0555       -1.1524       1.0970        -0.8378       0.7823
  115       0.7603        1.7058      -0.9456        -0.3058       1.0661
  116       1.3943        4.3950      -3.0007        -0.5058       1.9001
  117      26.5730       -0.4869      27.0599         0.7310      25.8420
  118      -0.2560        1.3407      -1.5967        -0.5952       0.3392
  119      -0.2314        0.4340      -0.6654        -1.3828       1.1514
  121       0.1827       -0.4752       0.6580        -0.8482       1.0309
 Sum       29.8910        7.3924      22.4986        -6.5100      36.4010

 Contributions to Isotropic shielding for atom  104 (    31.1903 ppm):
                         Standard Origin              Atomic Origin
 NLMO      Total    Paramagnetic  Diamagnetic   Paramagnetic  Diamagnetic
   81      -0.3452        1.1704      -1.5156        -1.0502       0.7050
   82      -0.1685        0.5452      -0.7137        -1.1140       0.9455
   86      -0.4669        1.8665      -2.3334        -1.5749       1.1080
   87       2.5733       -1.9490       4.5223         1.6337       0.9396
   91      -0.1666        1.1994      -1.3660        -0.8889       0.7223
   92      -0.1241        1.1135      -1.2376        -0.9210       0.7970
   98       0.4012       -1.3194       1.7206         0.1842       0.2169
  115       1.0168        2.0528      -1.0360        -0.1058       1.1226
  117      -0.1926       -1.1613       0.9687        -1.3611       1.1685
  118       0.1803        4.4391      -4.2588        -0.7097       0.8900
  119      25.8665       -0.4920      26.3585         0.3474      25.5191
  122       0.9590       -2.3755       3.3345        -0.7156       1.6747
  124       0.1485       -0.8706       1.0190        -0.3039       0.4524
  127      -0.2317       -1.2951       1.0634        -0.6463       0.4145
  193      -0.7603        0.4355      -1.1959         0.2425      -1.0029
  194      -0.0668       -1.0136       0.9468        -0.6429       0.5761
 Sum       28.6228        2.3459      26.2769        -7.6264      36.2492

 Contributions to Isotropic shielding for atom  105 (    30.5985 ppm):
                         Standard Origin              Atomic Origin
 NLMO      Total    Paramagnetic  Diamagnetic   Paramagnetic  Diamagnetic
  120      -0.7225        0.3699      -1.0924        -1.6303       0.9078
  121      -0.2956        0.9221      -1.2177        -1.8214       1.5258
  122      -1.4276        1.6354      -3.0630        -2.2790       0.8513
  123       2.7992       -4.8888       7.6880         1.3858       1.4134
  124      26.1722        1.0018      25.1705         1.0158      25.1564
  125       0.8771        2.6853      -1.8082        -0.9979       1.8750
  126       1.5977        1.1943       0.4035        -0.4473       2.0450
  191       0.2103       -0.7931       1.0034         0.9769      -0.7665
 Sum       29.2109        2.1268      27.0841        -3.7975      33.0084

 Contributions to Isotropic shielding for atom  106 (    30.5434 ppm):
                         Standard Origin              Atomic Origin
 NLMO      Total    Paramagnetic  Diamagnetic   Paramagnetic  Diamagnetic
  120      -1.2075        0.7604      -1.9679        -2.1008       0.8933
  121      -0.4750        1.9243      -2.3993        -2.0360       1.5611
  122      -2.2580        1.7226      -3.9806        -3.0405       0.7825
  123       0.9926        1.2527      -0.2601        -0.4745       1.4671
  124       1.2333        1.9807      -0.7474        -0.6385       1.8718
  125      26.5927        0.5686      26.0241         1.3605      25.2322
  126       1.2117        4.4842      -3.2725        -0.8302       2.0418
  191       0.5582       -1.5611       2.1193         1.3317      -0.7735
  192       0.9056        0.8910       0.0146         1.1290      -0.2234
  193       1.6380       -1.7078       3.3457         1.6985      -0.0605
  194       0.4391        1.4833      -1.0442        -0.0323       0.4714
 Sum       29.6307       11.7990      17.8317        -3.6331      33.2638

 Contributions to Isotropic shielding for atom  107 (    30.4818 ppm):
                         Standard Origin              Atomic Origin
 NLMO      Total    Paramagnetic  Diamagnetic   Paramagnetic  Diamagnetic
  120      -0.5918        0.2172      -0.8090        -1.2125       0.6207
  121      -0.0856        0.8842      -0.9698        -1.1164       1.0309
  122      -0.6473        0.5195      -1.1668        -0.6834       0.0362
  123       1.5436       -1.1819       2.7256        -0.5318       2.0754
  124       1.3480        0.5680       0.7799        -0.6480       1.9960
  125       0.4449        3.8579      -3.4130        -1.5403       1.9853
  126      25.9216        0.4379      25.4837         0.7486      25.1730
  193       0.9475       -0.5761       1.5236         1.4167      -0.4693
 Sum       28.8809        4.7267      24.1542        -3.5672      32.4481

 Contributions to Isotropic shielding for atom  108 (    30.9559 ppm):
                         Standard Origin              Atomic Origin
 NLMO      Total    Paramagnetic  Diamagnetic   Paramagnetic  Diamagnetic
   76      -0.2797        0.0234      -0.3031        -1.1366       0.8569
   81      -0.4897        0.8136      -1.3033        -1.2111       0.7214
   82       0.7042        1.4278      -0.7237        -0.4826       1.1868
  119      -0.1975       -1.3508       1.1532        -0.7862       0.5887
  122       1.0650       -1.1469       2.2118         0.4719       0.5931
  124       0.1504       -0.8745       1.0250        -0.2847       0.4351
  126       0.0721       -1.3816       1.4536        -0.6450       0.7170
  127      26.0626        0.1498      25.9127         0.6964      25.3662
  128       1.5911        3.3073      -1.7162        -0.3943       1.9854
  129       1.8758        0.3975       1.4784         0.0453       1.8305
  193      -1.0700        0.8639      -1.9339         0.2113      -1.2813
 Sum       29.4842        2.2296      27.2547        -3.5155      32.9997

 Contributions to Isotropic shielding for atom  109 (    30.6942 ppm):
                         Standard Origin              Atomic Origin
 NLMO      Total    Paramagnetic  Diamagnetic   Paramagnetic  Diamagnetic
   75      -0.5100        0.4226      -0.9326        -1.2256       0.7156
   76      -0.5651        0.2054      -0.7706        -1.9279       1.3627
   82       1.1861        0.3801       0.8060        -0.0682       1.2542
  122       0.6815       -0.5723       1.2537         0.3771       0.3044
  126       0.0128       -1.3769       1.3897        -0.6061       0.6189
  127       1.4856        3.3603      -1.8747        -0.4827       1.9683
  128      25.9973        0.2495      25.7478         0.6664      25.3308
  129       1.9925       -0.1901       2.1826         0.1973       1.7952
  193      -0.5546        0.6724      -1.2270         0.2949      -0.8495
 Sum       29.7260        3.1510      26.5750        -2.7747      32.5007

 Contributions to Isotropic shielding for atom  110 (    31.9509 ppm):
                         Standard Origin              Atomic Origin
 NLMO      Total    Paramagnetic  Diamagnetic   Paramagnetic  Diamagnetic
   76      -0.3963       -0.1380      -0.2583        -1.6045       1.2083
   82       1.8966       -2.7059       4.6025         1.1241       0.7725
   86       0.0305       -0.1577       0.1882        -0.9996       1.0301
  122       0.5318       -0.6324       1.1643        -0.0461       0.5779
  127       1.8012        1.2670       0.5342        -0.1131       1.9142
  128       1.9053        0.5429       1.3624         0.0101       1.8952
  129      26.2795        0.8444      25.4351         0.5796      25.6999
 Sum       32.0486       -0.9797      33.0284        -1.0495      33.0982
 
 1\1\GINC-PCSN02\SP\RHF\STO-3G\C45H56N4O5\ABENIDD\30-May-2024\0\\# nmr=
 giao hf/sto-3g pop=nbo geom=connectivity\\pleiokomenine_C_1a\\0,1\C,0,
 0.,0.,0.\C,0,1.4009,0.,0.\C,0,2.0943,1.2288,0.\C,0,1.4102,2.4512,0.000
 3\C,0,0.0265,2.4444,-0.0193\C,0,-0.6631,1.2188,-0.0028\N,0,-0.8552,3.5
 582,-0.0722\C,0,-2.1437,1.4973,0.0725\C,0,-2.1139,2.9425,-0.5636\C,0,-
 3.1421,0.6255,-0.7034\C,0,-2.0424,2.8054,-2.1475\C,0,-3.2791,2.0869,-2
 .7011\C,0,-4.1119,1.5432,-1.5241\N,0,-3.7707,-0.219,0.3149\C,0,-4.9911
 ,-0.892,-0.1043\C,0,-5.9862,-0.0172,-0.8658\C,0,-5.3096,0.7206,-2.021\
 C,0,-2.5438,1.3195,1.5573\C,0,-3.8541,0.5429,1.5513\C,0,-4.5992,2.8089
 ,-0.7396\C,0,-3.4173,3.7203,-0.3097\C,0,-3.6138,4.3,1.0802\O,0,-4.4188
 ,3.8889,1.9067\O,0,-2.8269,5.3978,1.2604\C,0,-2.9216,5.9787,2.5606\C,0
 ,-0.3292,4.7794,-0.6618\C,0,2.1637,-1.3051,-0.0161\C,0,2.3549,-1.8668,
 -1.4062\C,0,3.4036,-1.4029,-2.2115\C,0,1.4789,-2.8502,-1.9085\C,0,1.63
 61,-3.3708,-3.1988\C,0,2.6621,-2.8916,-3.9958\C,0,3.5471,-1.9244,-3.48
 86\N,0,2.9622,-3.2433,-5.3389\C,0,4.6207,-1.6548,-4.5147\C,0,3.7905,-2
 .0998,-5.7877\C,0,5.154,-0.2291,-4.7407\C,0,2.84,-0.8983,-6.2209\C,0,3
 .655,0.3416,-6.6154\C,0,5.1393,0.0941,-6.2738\N,0,6.5183,-0.1977,-4.07
 34\C,0,7.4099,0.9154,-4.5582\C,0,7.4115,1.1527,-6.0556\C,0,5.9897,1.33
 24,-6.5741\C,0,5.8619,-2.4798,-4.0854\C,0,7.0709,-1.5732,-4.2749\C,0,5
 .5742,-1.0945,-7.1982\C,0,4.6771,-2.3443,-7.0184\C,0,5.4829,-3.6311,-7
 .0428\O,0,6.6945,-3.6957,-6.8721\O,0,4.6916,-4.6943,-7.3515\C,0,5.3701
 ,-5.9503,-7.3507\C,0,1.857,-3.7425,-6.1437\O,0,6.3561,0.0125,-2.7105\H
 ,0,-0.5606,-0.9299,0.0204\H,0,3.1833,1.2361,-0.0033\H,0,1.9728,3.3772,
 0.0062\H,0,-2.6175,-0.0439,-1.3989\H,0,-1.9679,3.7947,-2.6172\H,0,-1.1
 437,2.2642,-2.4689\H,0,-3.8736,2.7796,-3.31\H,0,-2.9651,1.279,-3.3737\
 H,0,-4.7009,-1.7246,-0.7584\H,0,-5.4873,-1.3578,0.7559\H,0,-6.7902,-0.
 6476,-1.2636\H,0,-6.4616,0.6941,-0.1818\H,0,-4.9739,-0.0163,-2.7623\H,
 0,-6.0397,1.363,-2.5276\H,0,-2.6023,2.2485,2.1235\H,0,-1.8073,0.7049,2
 .0953\H,0,-3.9169,-0.1182,2.4225\H,0,-4.7159,1.211,1.5879\H,0,-5.2592,
 3.4,-1.391\H,0,-5.2328,2.533,0.1035\H,0,-3.4476,4.5993,-0.972\H,0,-2.2
 102,6.8075,2.6136\H,0,-3.928,6.374,2.7292\H,0,-2.6571,5.2468,3.3304\H,
 0,0.1307,4.5999,-1.6402\H,0,0.4177,5.2322,-0.0009\H,0,-1.1245,5.5187,-
 0.7975\H,0,1.6446,-2.0377,0.6162\H,0,3.1438,-1.1724,0.4614\H,0,4.1067,
 -0.6637,-1.8354\H,0,0.6637,-3.2175,-1.2887\H,0,0.9506,-4.1308,-3.5545\
 H,0,4.5687,0.5271,-4.1989\H,0,2.2088,-1.1919,-7.0696\H,0,2.1408,-0.624
 5,-5.421\H,0,3.266,1.222,-6.0888\H,0,3.5307,0.5452,-7.6865\H,0,7.0503,
 1.819,-4.0486\H,0,8.4148,0.69,-4.1838\H,0,7.9909,2.0575,-6.2739\H,0,7.
 9193,0.3336,-6.5733\H,0,5.5438,2.218,-6.1028\H,0,6.0143,1.5334,-7.6519
 \H,0,5.8168,-2.7286,-3.0154\H,0,5.9666,-3.4427,-4.5827\H,0,7.5071,-1.6
 298,-5.2699\H,0,7.8532,-1.7399,-3.5272\H,0,6.6305,-1.33,-7.0743\H,0,5.
 4947,-0.7751,-8.2477\H,0,4.0437,-2.4053,-7.9167\H,0,5.8218,-6.1438,-6.
 3726\H,0,6.1274,-5.9747,-8.1404\H,0,4.6336,-6.7331,-7.5519\H,0,2.153,-
 3.8374,-7.1929\H,0,1.558,-4.7405,-5.8058\H,0,0.9844,-3.0808,-6.101\\Ve
 rsion=ES64L-G16RevB.01\State=1-A\HF=-2300.2271545\RMSD=9.375e-09\Dipol
 e=-0.4222327,0.4125787,-2.4925155\Quadrupole=-8.1682369,6.3121066,1.85
 61303,-1.2371647,-9.5290437,4.872028\PG=C01 [X(C45H56N4O5)]\\@


 BRING ME INTO THE COMPANY OF THOSE WHO SEEK TRUTH,
 AND DELIVER ME FROM THOSE WHO HAVE FOUND IT.
 Job cpu time:       0 days  0 hours 10 minutes 16.5 seconds.
 Elapsed time:       0 days  0 hours  1 minutes 44.9 seconds.
 File lengths (MBytes):  RWF=     67 Int=      0 D2E=      0 Chk=     10 Scr=      1
 Normal termination of Gaussian 16 at Thu May 30 09:18:01 2024.
