 Entering Gaussian System, Link 0=g16
 Input=1_pleiokomenine_1a_c_9.gjf
 Output=1_pleiokomenine_1a_c_9.log
 Initial command:
 /opt/gaussian/g16/l1.exe "/data/abenidd/Elvis/pleiokomenine_C/NMR_HF/1a/1_pleiokomenine_1a_c_9/Gau-26540.inp" -scrdir="/data/abenidd/Elvis/pleiokomenine_C/NMR_HF/1a/1_pleiokomenine_1a_c_9/"
 Entering Link 1 = /opt/gaussian/g16/l1.exe PID=     26542.
  
 Copyright (c) 1988-2017, Gaussian, Inc.  All Rights Reserved.
  
 This is part of the Gaussian(R) 16 program.  It is based on
 the Gaussian(R) 09 system (copyright 2009, Gaussian, Inc.),
 the Gaussian(R) 03 system (copyright 2003, Gaussian, Inc.),
 the Gaussian(R) 98 system (copyright 1998, Gaussian, Inc.),
 the Gaussian(R) 94 system (copyright 1995, Gaussian, Inc.),
 the Gaussian 92(TM) system (copyright 1992, Gaussian, Inc.),
 the Gaussian 90(TM) system (copyright 1990, Gaussian, Inc.),
 the Gaussian 88(TM) system (copyright 1988, Gaussian, Inc.),
 the Gaussian 86(TM) system (copyright 1986, Carnegie Mellon
 University), and the Gaussian 82(TM) system (copyright 1983,
 Carnegie Mellon University). Gaussian is a federally registered
 trademark of Gaussian, Inc.
  
 This software contains proprietary and confidential information,
 including trade secrets, belonging to Gaussian, Inc.
  
 This software is provided under written license and may be
 used, copied, transmitted, or stored only in accord with that
 written license.
  
 The following legend is applicable only to US Government
 contracts under FAR:
  
                    RESTRICTED RIGHTS LEGEND
  
 Use, reproduction and disclosure by the US Government is
 subject to restrictions as set forth in subparagraphs (a)
 and (c) of the Commercial Computer Software - Restricted
 Rights clause in FAR 52.227-19.
  
 Gaussian, Inc.
 340 Quinnipiac St., Bldg. 40, Wallingford CT 06492
  
  
 ---------------------------------------------------------------
 Warning -- This program may not be used in any manner that
 competes with the business of Gaussian, Inc. or will provide
 assistance to any competitor of Gaussian, Inc.  The licensee
 of this program is prohibited from giving any competitor of
 Gaussian, Inc. access to this program.  By using this program,
 the user acknowledges that Gaussian, Inc. is engaged in the
 business of creating and licensing software in the field of
 computational chemistry and represents and warrants to the
 licensee that it is not a competitor of Gaussian, Inc. and that
 it will not use this program in any manner prohibited above.
 ---------------------------------------------------------------
  

 Cite this work as:
 Gaussian 16, Revision B.01,
 M. J. Frisch, G. W. Trucks, H. B. Schlegel, G. E. Scuseria, 
 M. A. Robb, J. R. Cheeseman, G. Scalmani, V. Barone, 
 G. A. Petersson, H. Nakatsuji, X. Li, M. Caricato, A. V. Marenich, 
 J. Bloino, B. G. Janesko, R. Gomperts, B. Mennucci, H. P. Hratchian, 
 J. V. Ortiz, A. F. Izmaylov, J. L. Sonnenberg, D. Williams-Young, 
 F. Ding, F. Lipparini, F. Egidi, J. Goings, B. Peng, A. Petrone, 
 T. Henderson, D. Ranasinghe, V. G. Zakrzewski, J. Gao, N. Rega, 
 G. Zheng, W. Liang, M. Hada, M. Ehara, K. Toyota, R. Fukuda, 
 J. Hasegawa, M. Ishida, T. Nakajima, Y. Honda, O. Kitao, H. Nakai, 
 T. Vreven, K. Throssell, J. A. Montgomery, Jr., J. E. Peralta, 
 F. Ogliaro, M. J. Bearpark, J. J. Heyd, E. N. Brothers, K. N. Kudin, 
 V. N. Staroverov, T. A. Keith, R. Kobayashi, J. Normand, 
 K. Raghavachari, A. P. Rendell, J. C. Burant, S. S. Iyengar, 
 J. Tomasi, M. Cossi, J. M. Millam, M. Klene, C. Adamo, R. Cammi, 
 J. W. Ochterski, R. L. Martin, K. Morokuma, O. Farkas, 
 J. B. Foresman, and D. J. Fox, Gaussian, Inc., Wallingford CT, 2016.
 
 ******************************************
 Gaussian 16:  ES64L-G16RevB.01 20-Dec-2017
                30-May-2024 
 ******************************************
 %nprocshared=8
 Will use up to    8 processors via shared memory.
 ----------------------------------------------
 # nmr=giao hf/sto-3g pop=nbo geom=connectivity
 ----------------------------------------------
 1/38=1,57=2,172=1/1;
 2/12=2,17=6,18=5,40=1/2;
 3/6=3,11=9,25=1,30=1/1,2,3,8;
 4//1;
 5/5=2,38=5/2;
 8/6=1,10=90,11=11/1;
 10/13=100,45=16/2;
 6/7=2,8=2,9=2,10=2,28=1,40=1,64=1/1,7;
 99/9=1/99;
 ------------------
 pleiokomenine_C_1a
 ------------------
 Symbolic Z-matrix:
 Charge =  0 Multiplicity = 1
 C                     0.        0.        0. 
 C                     1.4021    0.        0. 
 C                     2.0958    1.2289    0. 
 C                     1.4114    2.4525   -0.0082 
 C                     0.0285    2.445    -0.0042 
 C                    -0.6619    1.2162    0.022 
 N                    -0.8586    3.5516   -0.0179 
 C                    -2.1332    1.5082    0.1897 
 C                    -2.13      2.9361   -0.4643 
 C                    -3.2029    0.6512   -0.4882 
 C                    -2.0732    2.7821   -2.052 
 C                    -3.2611    1.9798   -2.5863 
 C                    -4.1157    1.4875   -1.4123 
 N                    -4.0523    0.1985    0.6187 
 C                    -4.964    -0.8473    0.2145 
 C                    -5.9568   -0.2066   -0.7712 
 C                    -5.2713    0.5823   -1.9038 
 C                    -2.4257    1.311     1.7023 
 C                    -3.1784   -0.0214    1.7485 
 C                    -4.6258    2.7628   -0.6535 
 C                    -3.4479    3.6995   -0.2205 
 C                    -3.6585    4.3192    1.1545 
 O                    -2.7975    4.5629    1.9867 
 O                    -4.9704    4.6829    1.3021 
 C                    -5.2654    5.3059    2.5526 
 C                    -0.3838    4.813    -0.5492 
 C                     2.1568   -1.3096    0.1007 
 C                     2.3479   -1.7643    1.5317 
 C                     1.2505   -2.2348    2.2652 
 C                     3.6101   -1.6937    2.153 
 C                     3.7799   -2.0626    3.4949 
 C                     2.6767   -2.4744    4.2247 
 C                     1.4247   -2.5705    3.5972 
 N                     2.6098   -2.8062    5.6051 
 C                     0.4121   -3.0966    4.5829 
 C                     1.1653   -2.6336    5.8964 
 C                    -1.0211   -2.5347    4.6047 
 C                     0.8594   -1.0898    6.1438 
 C                    -0.6404   -0.8461    6.3616 
 C                    -1.4064   -2.1541    6.0744 
 N                    -1.8837   -3.6015    3.951 
 C                    -3.3493   -3.4885    4.2804 
 C                    -3.6772   -3.1801    5.7279 
 C                    -2.9187   -1.946     6.2005 
 C                     0.2425   -4.6081    4.2856 
 C                    -1.2517   -4.8969    4.3532 
 C                    -0.9065   -3.1637    7.1646 
 C                     0.6341   -3.3304    7.1581 
 C                     1.0509   -4.7742    7.3741 
 O                     0.3126   -5.7407    7.2247 
 O                     2.3328   -4.8477    7.8248 
 C                     2.8136   -6.1788    8.0122 
 C                     3.6292   -2.2205    6.4634 
 O                    -1.7964   -3.4817    2.5697 
 H                    -0.5569   -0.9317    0.0409 
 H                     3.1831    1.2365    0.0274 
 H                     1.9694    3.3812    0.0021 
 H                    -2.7511   -0.1955   -1.0232 
 H                    -1.146     2.3026   -2.3899 
 H                    -2.067     3.772    -2.5276 
 H                    -3.8576    2.6023   -3.2648 
 H                    -2.8923    1.1366   -3.1837 
 H                    -4.4412   -1.6925   -0.2485 
 H                    -5.5226   -1.2323    1.075 
 H                    -6.5992   -0.9828   -1.2026 
 H                    -6.6187    0.4745   -0.2204 
 H                    -4.8733   -0.1473   -2.6218 
 H                    -6.0194    1.1735   -2.4452 
 H                    -3.084     2.0846    2.1015 
 H                    -1.5378    1.2793    2.3442 
 H                    -2.5113   -0.8781    1.6083 
 H                    -3.7249   -0.1354    2.6893 
 H                    -5.2991    3.3311   -1.3093 
 H                    -5.2322    2.4728    0.2122 
 H                    -3.4612    4.5753   -0.8872 
 H                    -6.3375    5.5194    2.5795 
 H                    -5.0261    4.6344    3.3833 
 H                    -4.7217    6.251     2.6465 
 H                     0.0025    4.7085   -1.5689 
 H                     0.4086    5.2254    0.0845 
 H                    -1.1929    5.5502   -0.5655 
 H                     3.1283   -1.211    -0.4007 
 H                     1.6247   -2.0901   -0.4591 
 H                     0.272    -2.3334    1.8038 
 H                     4.4723   -1.3384    1.5932 
 H                     4.7629   -1.9961    3.9461 
 H                    -1.1371   -1.6563    3.9543 
 H                     1.4084   -0.7237    7.0209 
 H                     1.202    -0.4678    5.3074 
 H                    -0.9811   -0.0329    5.7085 
 H                    -0.8186   -0.5084    7.3905 
 H                    -3.7296   -2.68      3.6425 
 H                    -3.8116   -4.4263    3.9525 
 H                    -4.7543   -2.9976    5.8197 
 H                    -3.4595   -4.0439    6.363 
 H                    -3.2305   -1.0806    5.6011 
 H                    -3.1935   -1.7209    7.2381 
 H                     0.5656   -4.8451    3.2617 
 H                     0.8351   -5.2687    4.9163 
 H                    -1.5717   -5.6675    3.6443 
 H                    -1.6005   -5.1583    5.3499 
 H                    -1.42     -4.1212    7.0857 
 H                    -1.197    -2.7873    8.1564 
 H                     1.0087   -2.8045    8.0497 
 H                     2.2482   -6.6803    8.8036 
 H                     3.8617   -6.1202    8.3182 
 H                     2.7576   -6.7439    7.0764 
 H                     3.4028   -2.4076    7.5175 
 H                     4.6052   -2.6747    6.2618 
 H                     3.7114   -1.1363    6.3263 
 
 Stoichiometry    C45H56N4O5
 Framework group  C1[X(C45H56N4O5)]
 Deg. of freedom   324
 Full point group                 C1      NOp   1
 Largest Abelian subgroup         C1      NOp   1
 Largest concise Abelian subgroup C1      NOp   1
                         Standard orientation:                         
 ---------------------------------------------------------------------
 Center     Atomic      Atomic             Coordinates (Angstroms)
 Number     Number       Type             X           Y           Z
 ---------------------------------------------------------------------
      1          6           0       -1.632521    1.965389   -1.323637
      2          6           0       -1.041162    3.233065   -1.227843
      3          6           0       -1.542899    4.163755   -0.293235
      4          6           0       -2.627660    3.850018    0.537746
      5          6           0       -3.203530    2.596454    0.440603
      6          6           0       -2.683807    1.659638   -0.475667
      7          7           0       -4.301657    2.072473    1.169478
      8          6           0       -3.386455    0.343041   -0.249907
      9          6           0       -4.723905    0.926600    0.330878
     10          6           0       -3.714740   -0.599399   -1.408481
     11          6           0       -5.609975    1.493486   -0.869644
     12          6           0       -5.932158    0.407621   -1.897926
     13          6           0       -5.227887   -0.895952   -1.503368
     14          7           0       -3.076538   -1.865095   -1.031180
     15          6           0       -3.042114   -2.806738   -2.126806
     16          6           0       -4.501743   -3.202451   -2.410789
     17          6           0       -5.442721   -1.992950   -2.574262
     18          6           0       -2.420546   -0.497499    0.629250
     19          6           0       -1.847418   -1.523201   -0.352300
     20          6           0       -5.784842   -1.306753   -0.095030
     21          6           0       -5.618161   -0.161417    0.959848
     22          6           0       -5.233219   -0.678186    2.339622
     23          8           0       -4.498428   -0.129701    3.147405
     24          8           0       -5.927763   -1.825950    2.614197
     25          6           0       -5.659717   -2.374804    3.904861
     26          6           0       -5.254561    2.998518    1.746764
     27          6           0        0.187655    3.556872   -2.052417
     28          6           0        1.472082    3.118425   -1.382310
     29          6           0        1.779758    1.754298   -1.291911
     30          6           0        2.353867    4.060428   -0.817303
     31          6           0        3.517196    3.654978   -0.148058
     32          6           0        3.782132    2.301394   -0.018224
     33          6           0        2.917189    1.364477   -0.605212
     34          7           0        4.846130    1.677677    0.688144
     35          6           0        3.456934   -0.024643   -0.375506
     36          6           0        4.310554    0.312728    0.914639
     37          6           0        2.503128   -1.189267   -0.052747
     38          6           0        3.340993    0.331165    2.178645
     39          6           0        2.689400   -1.040596    2.402085
     40          6           0        3.029149   -1.956055    1.207677
     41          7           0        2.413186   -2.004713   -1.331975
     42          6           0        1.931461   -3.416742   -1.123716
     43          6           0        2.514243   -4.141723    0.073219
     44          6           0        2.336986   -3.315937    1.341420
     45          6           0        4.173337   -0.447617   -1.683039
     46          6           0        3.772788   -1.893456   -1.947081
     47          6           0        4.585782   -2.133526    1.263608
     48          6           0        5.339171   -0.779532    1.244039
     49          6           0        6.585530   -0.834573    0.378883
     50          8           0        6.803852   -1.688693   -0.472201
     51          8           0        7.460286    0.149135    0.723733
     52          6           0        8.642608    0.189763   -0.075379
     53          6           0        5.443269    2.444739    1.771630
     54          8           0        1.494249   -1.414595   -2.190623
     55          1           0       -1.239179    1.217522   -2.006171
     56          1           0       -1.071801    5.139135   -0.194595
     57          1           0       -2.986043    4.580287    1.253443
     58          1           0       -3.317099   -0.213489   -2.357271
     59          1           0       -5.123841    2.331183   -1.385138
     60          1           0       -6.549614    1.909386   -0.482033
     61          1           0       -7.017539    0.258610   -1.956448
     62          1           0       -5.611464    0.741109   -2.892827
     63          1           0       -2.569714   -2.381368   -3.020087
     64          1           0       -2.481699   -3.706885   -1.850421
     65          1           0       -4.545292   -3.824546   -3.312105
     66          1           0       -4.870913   -3.824724   -1.585029
     67          1           0       -5.259824   -1.562958   -3.568193
     68          1           0       -6.484633   -2.334557   -2.571337
     69          1           0       -2.944384   -1.040816    1.417651
     70          1           0       -1.617407    0.073643    1.109012
     71          1           0       -1.101467   -1.082753   -1.021758
     72          1           0       -1.406005   -2.373478    0.175853
     73          1           0       -6.853147   -1.546500   -0.182299
     74          1           0       -5.302685   -2.228469    0.250255
     75          1           0       -6.613788    0.275302    1.132169
     76          1           0       -6.232787   -3.300770    4.004273
     77          1           0       -4.596540   -2.613915    4.008401
     78          1           0       -5.981573   -1.682561    4.688985
     79          1           0       -5.672481    3.677501    0.995591
     80          1           0       -4.783964    3.595853    2.534976
     81          1           0       -6.082676    2.454736    2.212488
     82          1           0        0.214846    4.634399   -2.260100
     83          1           0        0.111761    3.078208   -3.037713
     84          1           0        1.137401    1.006130   -1.747649
     85          1           0        2.131903    5.122892   -0.887339
     86          1           0        4.175713    4.402844    0.277789
     87          1           0        1.472870   -0.850443    0.125657
     88          1           0        3.893628    0.612137    3.084396
     89          1           0        2.551613    1.086150    2.075201
     90          1           0        1.604797   -0.920090    2.516206
     91          1           0        3.050208   -1.477045    3.342170
     92          1           0        0.842858   -3.338500   -1.005227
     93          1           0        2.134137   -3.952000   -2.058130
     94          1           0        2.000369   -5.102493    0.194596
     95          1           0        3.568229   -4.379657   -0.098232
     96          1           0        1.264978   -3.175134    1.532178
     97          1           0        2.735364   -3.870567    2.199604
     98          1           0        3.811734    0.142967   -2.537082
     99          1           0        5.251306   -0.294876   -1.685204
    100          1           0        3.685144   -2.125925   -3.013402
    101          1           0        4.428404   -2.620880   -1.473347
    102          1           0        4.937928   -2.806757    0.482924
    103          1           0        4.850620   -2.649016    2.198416
    104          1           0        5.724181   -0.621830    2.263227
    105          1           0        9.231517   -0.721212    0.068854
    106          1           0        9.241360    1.045161    0.249234
    107          1           0        8.389204    0.325846   -1.131534
    108          1           0        6.138983    1.826316    2.346891
    109          1           0        6.020300    3.285284    1.371586
    110          1           0        4.689973    2.834620    2.465590
 ---------------------------------------------------------------------
 Rotational constants (GHZ):           0.0960732           0.0329761           0.0297161
 Standard basis: STO-3G (5D, 7F)
 There are   326 symmetry adapted cartesian basis functions of A   symmetry.
 There are   326 symmetry adapted basis functions of A   symmetry.
   326 basis functions,   978 primitive gaussians,   326 cartesian basis functions
   197 alpha electrons      197 beta electrons
       nuclear repulsion energy      8139.5104573130 Hartrees.
 NAtoms=  110 NActive=  110 NUniq=  110 SFac= 1.00D+00 NAtFMM=   60 NAOKFM=T Big=T
 Integral buffers will be    131072 words long.
 Raffenetti 1 integral format.
 Two-electron integral symmetry is turned on.
 One-electron integrals computed using PRISM.
 NBasis=   326 RedAO= T EigKep=  1.72D-01  NBF=   326
 NBsUse=   326 1.00D-06 EigRej= -1.00D+00 NBFU=   326
 ExpMin= 1.69D-01 ExpMax= 1.31D+02 ExpMxC= 1.31D+02 IAcc=3 IRadAn=         5 AccDes= 0.00D+00
 Harris functional with IExCor=  205 and IRadAn=       5 diagonalized for initial guess.
 HarFok:  IExCor=  205 AccDes= 0.00D+00 IRadAn=         5 IDoV= 1 UseB2=F ITyADJ=14
 ICtDFT=  3500011 ScaDFX=  1.000000  1.000000  1.000000  1.000000
 FoFCou: FMM=F IPFlag=           0 FMFlag=      100000 FMFlg1=        2001
         NFxFlg=           0 DoJE=T BraDBF=F KetDBF=T FulRan=T
         wScrn=  0.000000 ICntrl=       500 IOpCl=  0 I1Cent=   200000004 NGrid=           0
         NMat0=    1 NMatS0=      1 NMatT0=    0 NMatD0=    1 NMtDS0=    0 NMtDT0=    0
 Petite list used in FoFCou.
 Requested convergence on RMS density matrix=1.00D-08 within 128 cycles.
 Requested convergence on MAX density matrix=1.00D-06.
 Requested convergence on             energy=1.00D-06.
 No special actions if energy rises.
 Integral accuracy reduced to 1.0D-05 until final iterations.
 Initial convergence to 1.0D-05 achieved.  Increase integral accuracy.
 SCF Done:  E(RHF) =  -2300.22011689     A.U. after   16 cycles
            NFock= 16  Conv=0.37D-08     -V/T= 2.0092
 Range of M.O.s used for correlation:     1   326
 NBasis=   326 NAE=   197 NBE=   197 NFC=     0 NFV=     0
 NROrb=    326 NOA=   197 NOB=   197 NVA=   129 NVB=   129
          Differentiating once with respect to magnetic field using GIAOs.
          Electric field/nuclear overlap derivatives assumed to be zero.
 FoFCou: FMM=F IPFlag=           0 FMFlag=      100000 FMFlg1=        2001
         NFxFlg=           0 DoJE=F BraDBF=F KetDBF=T FulRan=T
         wScrn=  0.000000 ICntrl=      6100 IOpCl=  0 I1Cent=           7 NGrid=         110
         NMat0=    1 NMatS0=      1 NMatT0=    0 NMatD0=    1 NMtDS0=    0 NMtDT0=    0
 Symmetry not used in FoFCou.
 FoFJK:  IHMeth= 1 ICntrl=    6127 DoSepK=F KAlg= 0 I1Cent=           0 FoldK=F
 IRaf=         1 NMat=       1 IRICut=       1 DoRegI=T DoRafI=F ISym2E= 0 IDoP0=0 IntGTp=1.
          There are     3 degrees of freedom in the 1st order CPHF.  IDoFFX=0 NUNeed=     3.
      3 vectors produced by pass  0 Test12= 8.47D-13 3.33D-08 XBig12= 1.78D+02 2.21D+00.
 AX will form     3 AO Fock derivatives at one time.
      3 vectors produced by pass  1 Test12= 8.47D-13 3.33D-08 XBig12= 7.83D-01 2.87D-01.
      3 vectors produced by pass  2 Test12= 8.47D-13 3.33D-08 XBig12= 1.97D-02 3.80D-02.
      3 vectors produced by pass  3 Test12= 8.47D-13 3.33D-08 XBig12= 4.34D-04 9.09D-03.
      3 vectors produced by pass  4 Test12= 8.47D-13 3.33D-08 XBig12= 1.76D-05 7.84D-04.
      3 vectors produced by pass  5 Test12= 8.47D-13 3.33D-08 XBig12= 2.93D-07 8.90D-05.
      3 vectors produced by pass  6 Test12= 8.47D-13 3.33D-08 XBig12= 7.78D-09 1.86D-05.
      3 vectors produced by pass  7 Test12= 8.47D-13 3.33D-08 XBig12= 3.39D-10 3.37D-06.
      3 vectors produced by pass  8 Test12= 8.47D-13 3.33D-08 XBig12= 6.48D-12 3.05D-07.
      2 vectors produced by pass  9 Test12= 8.47D-13 3.33D-08 XBig12= 1.10D-13 5.21D-08.
 InvSVY:  IOpt=1 It=  1 EMax= 3.55D-15
 Solved reduced A of dimension    29 with     3 vectors.
 Calculating GIAO nuclear magnetic shielding tensors.
 SCF GIAO Magnetic shielding tensor (ppm):
      1  C    Isotropic =   125.4841   Anisotropy =   148.9894
   XX=   151.0565   YX=    -0.1063   ZX=    72.3323
   XY=     0.4414   YY=    85.5331   ZY=   -67.4365
   XZ=    58.1963   YZ=   -55.9492   ZZ=   139.8626
   Eigenvalues:    32.2943   119.3476   224.8104
      2  C    Isotropic =   120.1734   Anisotropy =   157.8079
   XX=   106.9579   YX=   -42.1921   ZX=    84.9425
   XY=   -36.6541   YY=   109.3306   ZY=   -29.3806
   XZ=    73.6965   YZ=   -25.2077   ZZ=   144.2318
   Eigenvalues:    40.6424    94.4991   225.3786
      3  C    Isotropic =   119.5755   Anisotropy =   153.4590
   XX=   132.4168   YX=   -63.4959   ZX=    50.1915
   XY=   -56.9162   YY=    62.7985   ZY=   -32.7907
   XZ=    38.1423   YZ=   -39.4534   ZZ=   163.5113
   Eigenvalues:    27.3149   109.5302   221.8815
      4  C    Isotropic =   134.4880   Anisotropy =   142.4130
   XX=   160.7734   YX=    -6.1214   ZX=    62.6256
   XY=   -12.9639   YY=   102.0794   ZY=   -53.1509
   XZ=    61.5500   YZ=   -57.9231   ZZ=   140.6113
   Eigenvalues:    52.9700   121.0641   229.4300
      5  C    Isotropic =   108.9118   Anisotropy =   129.0751
   XX=   108.9760   YX=   -22.5222   ZX=    67.5073
   XY=   -26.7681   YY=    97.0618   ZY=   -22.0138
   XZ=    77.8070   YZ=    -4.7187   ZZ=   120.6976
   Eigenvalues:    40.3660    91.4075   194.9618
      6  C    Isotropic =   118.0834   Anisotropy =   141.6867
   XX=   144.6159   YX=   -36.7050   ZX=    53.7803
   XY=   -42.3055   YY=    67.0827   ZY=   -23.0075
   XZ=    52.1569   YZ=   -33.9262   ZZ=   142.5516
   Eigenvalues:    49.9533    91.7557   212.5412
      7  N    Isotropic =   275.4921   Anisotropy =    86.4527
   XX=   310.1331   YX=    26.2366   ZX=   -13.5595
   XY=    46.5640   YY=   262.3299   ZY=   -11.9618
   XZ=   -15.2001   YZ=    -3.2999   ZZ=   254.0133
   Eigenvalues:   242.6837   250.6653   333.1272
      8  C    Isotropic =   198.1242   Anisotropy =    11.9111
   XX=   196.1427   YX=    -5.7078   ZX=    -3.5880
   XY=    -5.2471   YY=   197.5778   ZY=     8.9555
   XZ=     0.0952   YZ=    -0.3209   ZZ=   200.6520
   Eigenvalues:   191.0381   197.2695   206.0649
      9  C    Isotropic =   180.3187   Anisotropy =    41.8529
   XX=   174.7871   YX=    12.8636   ZX=   -14.5531
   XY=     3.6645   YY=   189.0095   ZY=    19.6588
   XZ=    -2.4792   YZ=    29.0946   ZZ=   177.1594
   Eigenvalues:   151.9036   180.8318   208.2206
     10  C    Isotropic =   189.1790   Anisotropy =    33.6590
   XX=   187.9463   YX=   -16.5579   ZX=     1.4180
   XY=   -18.7313   YY=   198.4615   ZY=     1.5859
   XZ=     7.1587   YZ=     4.0380   ZZ=   181.1292
   Eigenvalues:   171.9404   183.9783   211.6183
     11  C    Isotropic =   213.0807   Anisotropy =    20.9877
   XX=   212.6790   YX=    -1.4706   ZX=    10.7759
   XY=    -4.8144   YY=   210.0711   ZY=     0.8325
   XZ=    11.4551   YZ=    -7.3934   ZZ=   216.4919
   Eigenvalues:   203.2935   208.8761   227.0725
     12  C    Isotropic =   214.5450   Anisotropy =    19.2745
   XX=   207.8119   YX=    -7.8346   ZX=     2.9718
   XY=    -7.5643   YY=   224.3142   ZY=    -0.6116
   XZ=     4.1602   YZ=     1.6138   ZZ=   211.5088
   Eigenvalues:   203.2820   212.9583   227.3947
     13  C    Isotropic =   210.8704   Anisotropy =     8.1899
   XX=   209.8995   YX=     3.6884   ZX=     0.7378
   XY=     1.6188   YY=   209.4821   ZY=     3.7872
   XZ=     3.3071   YZ=     2.0751   ZZ=   213.2297
   Eigenvalues:   206.8823   209.3986   216.3304
     14  N    Isotropic =   299.3851   Anisotropy =    58.5508
   XX=   303.4138   YX=   -26.2619   ZX=    31.7091
   XY=   -28.6455   YY=   316.4613   ZY=    26.2105
   XZ=    31.0817   YZ=    15.6500   ZZ=   278.2801
   Eigenvalues:   242.3003   317.4360   338.4189
     15  C    Isotropic =   202.1115   Anisotropy =    39.0680
   XX=   192.9590   YX=     4.8200   ZX=     1.9392
   XY=     3.1857   YY=   207.8533   ZY=    21.2886
   XZ=     2.0143   YZ=    20.5492   ZZ=   205.5222
   Eigenvalues:   185.4908   192.6869   228.1568
     16  C    Isotropic =   219.2417   Anisotropy =    11.1475
   XX=   224.7475   YX=     0.6791   ZX=     4.4925
   XY=    -0.6831   YY=   221.2181   ZY=     1.0178
   XZ=     5.5231   YZ=     5.4181   ZZ=   211.7597
   Eigenvalues:   209.2719   221.7799   226.6734
     17  C    Isotropic =   213.8527   Anisotropy =    22.9907
   XX=   206.7450   YX=    -0.0133   ZX=     5.0186
   XY=    -2.4795   YY=   220.3789   ZY=    12.1598
   XZ=     2.6431   YZ=    10.4506   ZZ=   214.4342
   Eigenvalues:   202.3718   210.0065   229.1798
     18  C    Isotropic =   208.4020   Anisotropy =    30.3971
   XX=   207.1169   YX=   -18.4157   ZX=    10.9703
   XY=   -13.2711   YY=   214.4794   ZY=     2.4461
   XZ=    16.2008   YZ=     4.5873   ZZ=   203.6097
   Eigenvalues:   185.2033   211.3360   228.6667
     19  C    Isotropic =   199.8904   Anisotropy =    41.9396
   XX=   212.1213   YX=    -3.9365   ZX=    22.4101
   XY=     5.4301   YY=   191.6337   ZY=    12.4996
   XZ=    19.0525   YZ=    11.3591   ZZ=   195.9161
   Eigenvalues:   175.7554   196.0657   227.8501
     20  C    Isotropic =   211.5193   Anisotropy =    23.2234
   XX=   202.3876   YX=     8.5484   ZX=    -5.4454
   XY=     7.0309   YY=   206.5442   ZY=     1.5884
   XZ=    -6.1554   YZ=     1.2942   ZZ=   225.6261
   Eigenvalues:   195.3999   212.1563   227.0016
     21  C    Isotropic =   207.7461   Anisotropy =    15.6861
   XX=   202.8601   YX=    -0.5936   ZX=    -0.6383
   XY=     2.3377   YY=   209.0239   ZY=    -8.3528
   XZ=    -4.7601   YZ=    -6.5979   ZZ=   211.3543
   Eigenvalues:   201.4350   203.5998   218.2035
     22  C    Isotropic =    98.8115   Anisotropy =    97.2811
   XX=   151.2599   YX=   -30.5243   ZX=    31.8335
   XY=   -20.2333   YY=    59.8666   ZY=   100.3950
   XZ=    16.5103   YZ=    79.0464   ZZ=    85.3080
   Eigenvalues:   -24.9861   157.7550   163.6656
     23  O    Isotropic =  -143.1246   Anisotropy =   894.1966
   XX=    29.6989   YX=  -395.7409   ZX=  -319.8631
   XY=  -391.2097   YY=  -151.2215   ZY=    54.3654
   XZ=  -324.2511   YZ=    48.3900   ZZ=  -307.8510
   Eigenvalues:  -593.4669  -288.9133   453.0065
     24  O    Isotropic =   285.2932   Anisotropy =   146.0951
   XX=   333.6750   YX=    51.3260   ZX=  -116.5324
   XY=    -2.7434   YY=   366.2934   ZY=   -36.4365
   XZ=   -46.5041   YZ=    77.3629   ZZ=   155.9111
   Eigenvalues:   121.0084   352.1812   382.6899
     25  C    Isotropic =   197.6345   Anisotropy =    56.3607
   XX=   180.5513   YX=    -3.1135   ZX=     5.2112
   XY=    -3.5034   YY=   188.6844   ZY=   -22.3965
   XZ=     5.1697   YZ=   -22.2197   ZZ=   223.6677
   Eigenvalues:   177.6112   180.0840   235.2082
     26  C    Isotropic =   211.0057   Anisotropy =    42.0454
   XX=   213.0249   YX=   -18.3809   ZX=   -11.2850
   XY=   -17.2861   YY=   212.8199   ZY=    11.6052
   XZ=   -12.7947   YZ=    10.2409   ZZ=   207.1723
   Eigenvalues:   194.9742   199.0069   239.0360
     27  C    Isotropic =   206.5112   Anisotropy =    15.0373
   XX=   216.4677   YX=    -0.3076   ZX=    -1.5975
   XY=    -0.2029   YY=   201.7911   ZY=    -5.4892
   XZ=    -0.4420   YZ=    -3.7822   ZZ=   201.2747
   Eigenvalues:   196.8472   206.1503   216.5361
     28  C    Isotropic =   120.1421   Anisotropy =   157.2382
   XX=    93.5696   YX=    20.2648   ZX=   -76.6731
   XY=    17.1326   YY=    90.9827   ZY=     0.1471
   XZ=   -82.2321   YZ=    -1.0296   ZZ=   175.8740
   Eigenvalues:    40.2982    95.1605   224.9676
     29  C    Isotropic =   121.9829   Anisotropy =   156.6183
   XX=   112.7830   YX=   -21.7760   ZX=   -72.4910
   XY=   -30.5579   YY=    70.6027   ZY=   -29.6771
   XZ=   -66.3271   YZ=   -31.5430   ZZ=   182.5631
   Eigenvalues:    31.5651   107.9885   226.3951
     30  C    Isotropic =   119.4030   Anisotropy =   150.0827
   XX=   133.2089   YX=    21.1501   ZX=   -50.3519
   XY=    20.8823   YY=    33.1017   ZY=     1.6601
   XZ=   -46.0193   YZ=     0.2897   ZZ=   191.8983
   Eigenvalues:    28.1050   110.6458   219.4581
     31  C    Isotropic =   134.3455   Anisotropy =   141.3422
   XX=   127.8638   YX=   -25.7967   ZX=   -62.5572
   XY=   -22.8025   YY=    87.3189   ZY=   -19.5311
   XZ=   -64.5075   YZ=   -29.7557   ZZ=   187.8538
   Eigenvalues:    53.5677   120.8952   228.5736
     32  C    Isotropic =   109.2585   Anisotropy =   126.1078
   XX=    91.3508   YX=    19.4217   ZX=   -67.6741
   XY=     6.8228   YY=    90.1415   ZY=     1.0689
   XZ=   -69.9342   YZ=     0.6953   ZZ=   146.2831
   Eigenvalues:    42.0350    92.4100   193.3304
     33  C    Isotropic =   119.9023   Anisotropy =   135.0096
   XX=   124.1155   YX=     1.4886   ZX=   -51.7641
   XY=     9.9637   YY=    51.6640   ZY=     1.3251
   XZ=   -42.6458   YZ=     2.6885   ZZ=   183.9274
   Eigenvalues:    50.8996    98.8986   209.9087
     34  N    Isotropic =   274.6355   Anisotropy =    80.9846
   XX=   270.9104   YX=   -13.4131   ZX=    28.1772
   XY=   -26.3792   YY=   277.3109   ZY=   -41.9943
   XZ=    18.5847   YZ=   -29.8035   ZZ=   275.6853
   Eigenvalues:   240.1470   255.1343   328.6253
     35  C    Isotropic =   195.7910   Anisotropy =    15.3734
   XX=   201.2114   YX=     3.2596   ZX=     0.3300
   XY=     8.2209   YY=   195.2900   ZY=     3.8231
   XZ=     2.9613   YZ=     7.4094   ZZ=   190.8716
   Eigenvalues:   186.7503   194.5828   206.0399
     36  C    Isotropic =   181.4440   Anisotropy =    44.5035
   XX=   176.1038   YX=    21.2444   ZX=     6.8901
   XY=    10.7664   YY=   203.7290   ZY=     0.0902
   XZ=    18.9078   YZ=    -8.5428   ZZ=   164.4991
   Eigenvalues:   152.9580   180.2609   211.1130
     37  C    Isotropic =   180.0163   Anisotropy =    44.2294
   XX=   167.5760   YX=     2.0331   ZX=     1.8457
   XY=     4.8387   YY=   179.8394   ZY=    24.9564
   XZ=    -5.8579   YZ=    19.7715   ZZ=   192.6334
   Eigenvalues:   160.7027   169.8436   209.5025
     38  C    Isotropic =   213.9551   Anisotropy =    18.7593
   XX=   213.6086   YX=    -0.8677   ZX=   -11.6048
   XY=     5.4035   YY=   209.6810   ZY=     0.1579
   XZ=    -8.3811   YZ=     0.6109   ZZ=   218.5758
   Eigenvalues:   204.9243   210.4797   226.4613
     39  C    Isotropic =   212.7773   Anisotropy =    20.3925
   XX=   207.4139   YX=     0.0067   ZX=    -2.6560
   XY=    -1.3691   YY=   215.5196   ZY=    11.9369
   XZ=    -3.2275   YZ=     9.1950   ZZ=   215.3984
   Eigenvalues:   204.0515   207.9081   226.3723
     40  C    Isotropic =   212.2509   Anisotropy =     8.5739
   XX=   213.3115   YX=     3.6159   ZX=    -1.3890
   XY=     2.4899   YY=   213.2659   ZY=    -3.0432
   XZ=    -0.2392   YZ=    -4.9762   ZZ=   210.1752
   Eigenvalues:   207.2046   211.5811   217.9668
     41  N    Isotropic =   235.0669   Anisotropy =    25.8240
   XX=   243.4415   YX=     3.9936   ZX=     7.1383
   XY=   -16.4322   YY=   223.0436   ZY=     0.0914
   XZ=    14.7414   YZ=    13.5440   ZZ=   238.7156
   Eigenvalues:   216.6328   236.2850   252.2829
     42  C    Isotropic =   195.0683   Anisotropy =    47.8565
   XX=   191.9480   YX=    13.7707   ZX=     4.7813
   XY=    16.2850   YY=   219.8505   ZY=   -13.0797
   XZ=     3.4641   YZ=    -2.4233   ZZ=   173.4065
   Eigenvalues:   169.8390   188.3934   226.9727
     43  C    Isotropic =   223.0839   Anisotropy =     9.5701
   XX=   217.5383   YX=     0.8378   ZX=     4.4928
   XY=     0.0421   YY=   224.4383   ZY=     2.4186
   XZ=     3.6366   YZ=     1.2940   ZZ=   227.2750
   Eigenvalues:   216.0586   223.7291   229.4639
     44  C    Isotropic =   215.8964   Anisotropy =    18.1172
   XX=   215.1500   YX=     5.5253   ZX=     2.4950
   XY=     9.2914   YY=   223.1646   ZY=     4.0878
   XZ=    -0.3106   YZ=     0.9157   ZZ=   209.3746
   Eigenvalues:   208.9170   210.7977   227.9745
     45  C    Isotropic =   211.2730   Anisotropy =    37.1635
   XX=   196.8096   YX=    -7.5258   ZX=   -14.9953
   XY=    -0.6225   YY=   218.5086   ZY=    12.4561
   XZ=   -12.7682   YZ=    14.0758   ZZ=   218.5009
   Eigenvalues:   189.8405   207.9299   236.0487
     46  C    Isotropic =   191.7090   Anisotropy =    54.0549
   XX=   213.9399   YX=     9.5608   ZX=   -26.4918
   XY=    17.1595   YY=   178.6202   ZY=    14.6232
   XZ=   -21.4098   YZ=     8.8148   ZZ=   182.5667
   Eigenvalues:   156.6599   190.7214   227.7455
     47  C    Isotropic =   212.6099   Anisotropy =    22.8192
   XX=   226.6019   YX=     3.8477   ZX=    -0.3922
   XY=     4.5584   YY=   211.2721   ZY=    -4.4940
   XZ=    -0.9136   YZ=    -6.1389   ZZ=   199.9556
   Eigenvalues:   197.8178   212.1892   227.8227
     48  C    Isotropic =   209.5376   Anisotropy =    10.7581
   XX=   214.3272   YX=    -0.1894   ZX=    -3.4201
   XY=    -7.8853   YY=   208.0900   ZY=    -3.3487
   XZ=    -5.2359   YZ=    -6.9768   ZZ=   206.1957
   Eigenvalues:   199.5322   212.3710   216.7097
     49  C    Isotropic =    96.0571   Anisotropy =    98.9370
   XX=    12.8047   YX=   -65.8633   ZX=    34.1741
   XY=   -79.7724   YY=   126.4396   ZY=    19.6651
   XZ=    20.8020   YZ=     8.2812   ZZ=   148.9269
   Eigenvalues:   -28.1089   154.2651   162.0151
     50  O    Isotropic =  -133.6031   Anisotropy =   886.4550
   XX=  -162.1552   YX=  -156.1742   ZX=   243.7331
   XY=  -172.2120   YY=  -183.3429   ZY=  -444.5155
   XZ=   221.5516   YZ=  -440.1298   ZZ=   -55.3112
   Eigenvalues:  -568.7538  -289.4224   457.3669
     51  O    Isotropic =   283.3091   Anisotropy =   139.0883
   XX=   245.4830   YX=    -3.2065   ZX=    79.5874
   XY=   106.2994   YY=   352.2483   ZY=   -74.3940
   XZ=   153.1916   YZ=    -0.9100   ZZ=   252.1961
   Eigenvalues:   115.5032   358.3895   376.0347
     52  C    Isotropic =   197.2021   Anisotropy =    58.0895
   XX=   221.5761   YX=     3.6501   ZX=   -24.6045
   XY=     3.5768   YY=   177.6435   ZY=    -2.8620
   XZ=   -24.6310   YZ=    -2.1238   ZZ=   192.3868
   Eigenvalues:   177.1941   178.4838   235.9285
     53  C    Isotropic =   209.9175   Anisotropy =    41.6277
   XX=   208.4777   YX=     8.7269   ZX=    13.0695
   XY=    10.9333   YY=   206.5060   ZY=    17.4712
   XZ=    12.4561   YZ=    17.8619   ZZ=   214.7686
   Eigenvalues:   192.4882   199.5949   237.6693
     54  O    Isotropic =     1.7706   Anisotropy =   521.5443
   XX=    78.4932   YX=  -138.4729   ZX=   200.5679
   XY=  -158.7352   YY=  -115.8758   ZY=  -136.9678
   XZ=   207.5545   YZ=  -124.0537   ZZ=    42.6944
   Eigenvalues:  -200.1598  -143.9952   349.4668
     55  H    Isotropic =    25.5663   Anisotropy =    12.0194
   XX=    29.7041   YX=     4.6979   ZX=    -2.1342
   XY=     4.2321   YY=    26.5859   ZY=    -1.7452
   XZ=    -3.0080   YZ=    -1.5373   ZZ=    20.4089
   Eigenvalues:    19.6984    23.4213    33.5792
     56  H    Isotropic =    25.9018   Anisotropy =     6.9603
   XX=    27.1556   YX=    -1.0688   ZX=    -3.4569
   XY=     0.0061   YY=    27.2529   ZY=     1.8425
   XZ=    -4.5759   YZ=     2.5382   ZZ=    23.2971
   Eigenvalues:    20.3953    26.7682    30.5420
     57  H    Isotropic =    26.7163   Anisotropy =     7.4546
   XX=    27.2015   YX=     3.0976   ZX=    -2.7743
   XY=     3.2191   YY=    29.4602   ZY=     2.2548
   XZ=    -3.8448   YZ=     2.2210   ZZ=    23.4873
   Eigenvalues:    20.1685    28.2945    31.6860
     58  H    Isotropic =    31.9337   Anisotropy =     6.9796
   XX=    31.5665   YX=     3.0202   ZX=    -2.6194
   XY=     1.9593   YY=    30.1631   ZY=    -1.7720
   XZ=    -2.9463   YZ=     0.0391   ZZ=    34.0714
   Eigenvalues:    28.0659    31.1484    36.5867
     59  H    Isotropic =    32.9163   Anisotropy =     8.5946
   XX=    31.3137   YX=     3.7352   ZX=     1.2486
   XY=     0.6859   YY=    36.5013   ZY=    -4.3549
   XZ=     3.6595   YZ=    -3.5081   ZZ=    30.9338
   Eigenvalues:    26.6722    33.4305    38.6460
     60  H    Isotropic =    32.2150   Anisotropy =    14.0042
   XX=    37.2944   YX=    -6.0470   ZX=    -0.1859
   XY=    -6.8360   YY=    31.2757   ZY=     3.0220
   XZ=     1.1630   YZ=     3.7805   ZZ=    28.0750
   Eigenvalues:    24.4103    30.6836    41.5512
     61  H    Isotropic =    32.2421   Anisotropy =    15.9551
   XX=    41.1104   YX=    -0.8323   ZX=     4.9888
   XY=    -1.3809   YY=    27.9887   ZY=     0.9706
   XZ=     5.2931   YZ=     1.2859   ZZ=    27.6274
   Eigenvalues:    25.1665    28.6811    42.8789
     62  H    Isotropic =    32.6053   Anisotropy =    12.9490
   XX=    27.5750   YX=     0.1826   ZX=     1.1996
   XY=    -1.2089   YY=    30.5612   ZY=    -4.2826
   XZ=     1.8778   YZ=    -3.2857   ZZ=    39.6797
   Eigenvalues:    27.3817    29.1963    41.2380
     63  H    Isotropic =    32.1578   Anisotropy =    10.6647
   XX=    33.2238   YX=     0.6449   ZX=    -4.6412
   XY=     0.4771   YY=    27.8078   ZY=     2.3301
   XZ=    -4.6654   YZ=     1.8647   ZZ=    35.4417
   Eigenvalues:    26.6340    30.5717    39.2676
     64  H    Isotropic =    31.6709   Anisotropy =    13.6472
   XX=    33.0089   YX=    -5.4596   ZX=     2.0281
   XY=    -5.4210   YY=    36.9424   ZY=     1.6333
   XZ=     2.3419   YZ=     2.3033   ZZ=    25.0614
   Eigenvalues:    23.5447    30.6989    40.7690
     65  H    Isotropic =    32.3607   Anisotropy =    17.3739
   XX=    28.4146   YX=     0.7846   ZX=     1.9413
   XY=     0.8748   YY=    34.5680   ZY=     8.9998
   XZ=     2.2980   YZ=     9.6578   ZZ=    34.0995
   Eigenvalues:    24.7462    28.3926    43.9433
     66  H    Isotropic =    31.9082   Anisotropy =    12.1807
   XX=    29.5314   YX=     3.7728   ZX=    -2.5132
   XY=     3.9920   YY=    36.8228   ZY=    -3.5676
   XZ=    -2.0067   YZ=    -3.2468   ZZ=    29.3703
   Eigenvalues:    27.1738    28.5221    40.0287
     67  H    Isotropic =    32.4825   Anisotropy =    12.6033
   XX=    27.2036   YX=    -0.7117   ZX=     1.8904
   XY=    -1.1636   YY=    29.7316   ZY=    -0.6580
   XZ=     2.3993   YZ=    -0.3132   ZZ=    40.5124
   Eigenvalues:    26.6309    29.9320    40.8847
     68  H    Isotropic =    32.2085   Anisotropy =    15.4396
   XX=    39.2706   YX=     4.3658   ZX=     3.5078
   XY=     4.3286   YY=    29.8429   ZY=     3.6523
   XZ=     3.7593   YZ=     3.8029   ZZ=    27.5119
   Eigenvalues:    24.7599    29.3640    42.5015
     69  H    Isotropic =    32.4796   Anisotropy =    11.1681
   XX=    33.1611   YX=    -1.4354   ZX=    -4.4452
   XY=    -1.0334   YY=    28.2586   ZY=    -3.7184
   XZ=    -4.0639   YZ=    -5.3362   ZZ=    36.0191
   Eigenvalues:    25.0218    32.4920    39.9250
     70  H    Isotropic =    33.0551   Anisotropy =    11.7364
   XX=    37.7640   YX=     0.0244   ZX=     6.2702
   XY=     1.6487   YY=    30.9951   ZY=     2.9631
   XZ=     4.6956   YZ=    -0.2662   ZZ=    30.4061
   Eigenvalues:    27.3037    30.9821    40.8794
     71  H    Isotropic =    31.3445   Anisotropy =    17.1498
   XX=    42.0821   YX=     0.1639   ZX=    -3.8061
   XY=     0.9993   YY=    27.8838   ZY=     0.3153
   XZ=    -3.2591   YZ=    -1.0713   ZZ=    24.0677
   Eigenvalues:    23.3843    27.8716    42.7778
     72  H    Isotropic =    32.0624   Anisotropy =    16.1626
   XX=    36.5697   YX=    -7.0330   ZX=     4.4132
   XY=    -5.6698   YY=    32.5179   ZY=    -2.2902
   XZ=     3.4330   YZ=    -4.1227   ZZ=    27.0996
   Eigenvalues:    25.4451    27.9047    42.8375
     73  H    Isotropic =    31.5255   Anisotropy =    15.0555
   XX=    38.6384   YX=     6.4753   ZX=    -1.6746
   XY=     6.1480   YY=    27.5712   ZY=     0.9217
   XZ=    -1.2857   YZ=     1.1890   ZZ=    28.3669
   Eigenvalues:    24.1219    28.8921    41.5625
     74  H    Isotropic =    30.8805   Anisotropy =     8.0390
   XX=    26.5698   YX=    -0.9522   ZX=    -3.8350
   XY=    -0.1881   YY=    34.6144   ZY=    -2.3825
   XZ=    -1.8950   YZ=    -2.9600   ZZ=    31.4572
   Eigenvalues:    24.9519    31.4497    36.2398
     75  H    Isotropic =    31.4380   Anisotropy =    12.9285
   XX=    37.4079   YX=    -2.1338   ZX=    -4.4070
   XY=    -2.7975   YY=    28.8976   ZY=    -0.1486
   XZ=    -5.3874   YZ=     1.3374   ZZ=    28.0085
   Eigenvalues:    25.8525    28.4046    40.0570
     76  H    Isotropic =    30.5673   Anisotropy =    12.5592
   XX=    28.5389   YX=     4.5280   ZX=    -1.9347
   XY=     4.9338   YY=    34.0981   ZY=    -3.6223
   XZ=    -2.5390   YZ=    -4.3971   ZZ=    29.0650
   Eigenvalues:    25.8295    26.9323    38.9401
     77  H    Isotropic =    30.6092   Anisotropy =     7.8353
   XX=    33.5600   YX=    -3.1008   ZX=     1.4844
   XY=    -1.9665   YY=    28.2118   ZY=    -3.4440
   XZ=     0.9474   YZ=    -3.7623   ZZ=    30.0557
   Eigenvalues:    25.2051    30.7898    35.8327
     78  H    Isotropic =    30.5730   Anisotropy =    11.0884
   XX=    27.1656   YX=    -0.3230   ZX=    -3.5650
   XY=    -0.7725   YY=    28.3458   ZY=     2.0271
   XZ=    -4.2095   YZ=     1.2869   ZZ=    36.2077
   Eigenvalues:    25.7226    28.0312    37.9653
     79  H    Isotropic =    31.9618   Anisotropy =    12.4075
   XX=    31.4749   YX=    -5.9332   ZX=     0.5633
   XY=    -6.1057   YY=    35.9009   ZY=    -0.6436
   XZ=     1.7912   YZ=    -0.7457   ZZ=    28.5095
   Eigenvalues:    27.0364    28.6155    40.2334
     80  H    Isotropic =    30.8899   Anisotropy =    14.5178
   XX=    27.5313   YX=     0.8703   ZX=    -0.6657
   XY=     1.4567   YY=    32.0134   ZY=     7.8504
   XZ=    -0.5030   YZ=     8.0885   ZZ=    33.1250
   Eigenvalues:    24.1214    27.9798    40.5684
     81  H    Isotropic =    31.7040   Anisotropy =    11.8372
   XX=    34.0841   YX=     0.5430   ZX=    -7.2831
   XY=     0.6052   YY=    31.0824   ZY=     1.6306
   XZ=    -7.1937   YZ=     2.0787   ZZ=    29.9456
   Eigenvalues:    24.0127    31.5038    39.5955
     82  H    Isotropic =    29.9492   Anisotropy =    12.3960
   XX=    27.4261   YX=     0.3964   ZX=     0.1594
   XY=     1.1284   YY=    37.1488   ZY=    -3.1506
   XZ=    -0.5446   YZ=    -4.0537   ZZ=    25.2728
   Eigenvalues:    24.2655    27.3689    38.2132
     83  H    Isotropic =    29.9271   Anisotropy =     8.0373
   XX=    26.4195   YX=     0.7513   ZX=     0.4968
   XY=     1.0375   YY=    28.6530   ZY=     1.2014
   XZ=     1.3979   YZ=     2.1336   ZZ=    34.7090
   Eigenvalues:    26.0897    28.4064    35.2853
     84  H    Isotropic =    24.7893   Anisotropy =    14.2654
   XX=    29.0571   YX=    -5.2144   ZX=     1.8671
   XY=    -4.8628   YY=    27.6325   ZY=    -1.7771
   XZ=     4.3233   YZ=    -2.6634   ZZ=    17.6782
   Eigenvalues:    16.7944    23.2739    34.2996
     85  H    Isotropic =    25.7028   Anisotropy =     6.5329
   XX=    28.0507   YX=     1.8156   ZX=     2.9490
   XY=     0.8419   YY=    27.3186   ZY=     0.1601
   XZ=     3.4984   YZ=     0.4069   ZZ=    21.7392
   Eigenvalues:    20.3742    26.6762    30.0581
     86  H    Isotropic =    26.6757   Anisotropy =     7.8804
   XX=    26.7505   YX=    -0.6659   ZX=     3.7186
   XY=    -0.7913   YY=    31.3382   ZY=    -1.2330
   XZ=     3.6372   YZ=    -1.5293   ZZ=    21.9383
   Eigenvalues:    19.8824    28.2153    31.9293
     87  H    Isotropic =    31.0746   Anisotropy =    13.3825
   XX=    39.1431   YX=    -2.0926   ZX=     1.7075
   XY=    -3.9228   YY=    28.5433   ZY=     0.4393
   XZ=     0.1009   YZ=    -0.8404   ZZ=    25.5375
   Eigenvalues:    25.4776    27.7499    39.9963
     88  H    Isotropic =    32.3286   Anisotropy =    13.4765
   XX=    28.2483   YX=     4.5533   ZX=     1.9715
   XY=     3.6416   YY=    30.0912   ZY=     3.8607
   XZ=     3.7286   YZ=     3.3669   ZZ=    38.6463
   Eigenvalues:    24.9699    30.7030    41.3129
     89  H    Isotropic =    33.2388   Anisotropy =     9.1526
   XX=    34.1606   YX=    -3.9190   ZX=    -3.7212
   XY=    -5.2970   YY=    34.9082   ZY=     0.9069
   XZ=    -0.7419   YZ=    -1.6678   ZZ=    30.6475
   Eigenvalues:    28.2878    32.0880    39.3405
     90  H    Isotropic =    32.7698   Anisotropy =    13.7741
   XX=    40.3007   YX=    -0.4280   ZX=    -4.4864
   XY=    -1.2126   YY=    28.2388   ZY=     1.3255
   XZ=    -4.2691   YZ=    -0.1117   ZZ=    29.7699
   Eigenvalues:    27.8871    28.4698    41.9526
     91  H    Isotropic =    32.4440   Anisotropy =    14.7515
   XX=    26.9545   YX=     0.4763   ZX=     1.2875
   XY=     0.5136   YY=    29.2528   ZY=    -3.4798
   XZ=     1.2071   YZ=    -4.0001   ZZ=    41.1247
   Eigenvalues:    26.4834    28.5703    42.2783
     92  H    Isotropic =    30.8328   Anisotropy =    15.3242
   XX=    40.5712   YX=     0.3045   ZX=     2.6956
   XY=     2.4837   YY=    27.8589   ZY=     0.5168
   XZ=     2.0756   YZ=    -0.8426   ZZ=    24.0682
   Eigenvalues:    23.6989    27.7505    41.0489
     93  H    Isotropic =    30.8856   Anisotropy =    13.0232
   XX=    26.0142   YX=     0.8205   ZX=     0.4647
   XY=     1.9637   YY=    32.9173   ZY=     6.8323
   XZ=     0.9985   YZ=     5.3076   ZZ=    33.7255
   Eigenvalues:    25.6819    27.4072    39.5678
     94  H    Isotropic =    32.3617   Anisotropy =    17.3162
   XX=    28.0641   YX=     5.0980   ZX=     0.1741
   XY=     5.0172   YY=    42.2284   ZY=    -1.0709
   XZ=     0.2379   YZ=    -1.1321   ZZ=    26.7926
   Eigenvalues:    26.0385    27.1407    43.9058
     95  H    Isotropic =    32.5923   Anisotropy =    11.6163
   XX=    36.5605   YX=    -4.8093   ZX=    -1.1629
   XY=    -4.1930   YY=    34.3078   ZY=     1.7747
   XZ=    -1.0456   YZ=     1.4892   ZZ=    26.9087
   Eigenvalues:    26.5616    30.8788    40.3366
     96  H    Isotropic =    32.6477   Anisotropy =    13.3119
   XX=    40.1461   YX=     1.4432   ZX=    -3.7411
   XY=     1.8043   YY=    29.3034   ZY=    -0.3438
   XZ=    -3.8496   YZ=    -0.9747   ZZ=    28.4934
   Eigenvalues:    27.3497    29.0710    41.5223
     97  H    Isotropic =    32.5100   Anisotropy =    14.5887
   XX=    27.2934   YX=    -0.2361   ZX=     2.7488
   XY=     0.3307   YY=    34.3867   ZY=    -6.7282
   XZ=     2.0885   YZ=    -7.0056   ZZ=    35.8500
   Eigenvalues:    25.9126    29.3816    42.2358
     98  H    Isotropic =    31.6533   Anisotropy =    10.8374
   XX=    26.2933   YX=    -2.5129   ZX=    -0.5423
   XY=    -1.6058   YY=    31.7147   ZY=    -5.2679
   XZ=     0.3028   YZ=    -2.0217   ZZ=    36.9519
   Eigenvalues:    25.4342    30.6476    38.8782
     99  H    Isotropic =    32.8649   Anisotropy =    12.1925
   XX=    40.4653   YX=     1.9119   ZX=    -2.2009
   XY=     1.3655   YY=    26.9988   ZY=    -0.1166
   XZ=    -1.5907   YZ=     1.4561   ZZ=    31.1305
   Eigenvalues:    26.6170    30.9845    40.9932
    100  H    Isotropic =    30.9680   Anisotropy =    14.7068
   XX=    26.9134   YX=     0.1916   ZX=    -4.4572
   XY=     0.2409   YY=    27.6801   ZY=     4.9151
   XZ=    -1.3744   YZ=     5.0137   ZZ=    38.3105
   Eigenvalues:    24.7700    27.3615    40.7725
    101  H    Isotropic =    31.4940   Anisotropy =     8.9673
   XX=    34.2905   YX=    -4.4431   ZX=    -1.3879
   XY=    -3.7731   YY=    31.5078   ZY=     0.4319
   XZ=    -0.8991   YZ=     1.3196   ZZ=    28.6839
   Eigenvalues:    28.4326    28.5773    37.4723
    102  H    Isotropic =    31.6664   Anisotropy =     9.7030
   XX=    32.9145   YX=    -3.4455   ZX=    -1.5374
   XY=    -1.9842   YY=    33.4724   ZY=     4.6319
   XZ=    -1.7366   YZ=     4.4894   ZZ=    28.6123
   Eigenvalues:    25.8747    30.9894    38.1351
    103  H    Isotropic =    32.2648   Anisotropy =    14.7040
   XX=    30.8851   YX=    -2.0152   ZX=     5.4346
   XY=    -1.3836   YY=    32.7329   ZY=    -6.7601
   XZ=     4.9236   YZ=    -7.0185   ZZ=    33.1764
   Eigenvalues:    24.7981    29.9288    42.0675
    104  H    Isotropic =    31.2333   Anisotropy =    12.7534
   XX=    32.3039   YX=     1.8395   ZX=     6.1480
   XY=     1.8061   YY=    27.1057   ZY=    -0.3633
   XZ=     6.2093   YZ=     1.2083   ZZ=    34.2904
   Eigenvalues:    25.8752    28.0892    39.7356
    105  H    Isotropic =    30.5753   Anisotropy =    11.7369
   XX=    35.7584   YX=    -4.2017   ZX=    -0.2368
   XY=    -4.9247   YY=    30.4976   ZY=    -0.3849
   XZ=    -0.4849   YZ=     0.1300   ZZ=    25.4698
   Eigenvalues:    25.4302    27.8958    38.3998
    106  H    Isotropic =    30.5114   Anisotropy =    12.2680
   XX=    34.7572   YX=     5.6204   ZX=     0.6469
   XY=     5.1059   YY=    31.0927   ZY=     1.6958
   XZ=    -0.0727   YZ=     1.3596   ZZ=    25.6842
   Eigenvalues:    25.0637    27.7804    38.6900
    107  H    Isotropic =    30.6316   Anisotropy =     7.8093
   XX=    31.2300   YX=     0.6413   ZX=    -1.5179
   XY=     0.9787   YY=    26.1059   ZY=    -1.4833
   XZ=    -2.3981   YZ=    -1.9687   ZZ=    34.5588
   Eigenvalues:    25.7323    30.3246    35.8378
    108  H    Isotropic =    31.0000   Anisotropy =    11.0359
   XX=    33.0446   YX=    -0.7845   ZX=     6.2066
   XY=    -0.4596   YY=    30.3961   ZY=     1.2596
   XZ=     7.4629   YZ=     0.7454   ZZ=    29.5593
   Eigenvalues:    24.0322    30.6105    38.3573
    109  H    Isotropic =    30.7628   Anisotropy =    14.7920
   XX=    31.7123   YX=     6.6218   ZX=     0.9420
   XY=     6.5262   YY=    35.7418   ZY=    -0.2367
   XZ=     1.8359   YZ=    -0.3810   ZZ=    24.8343
   Eigenvalues:    24.1807    27.4835    40.6241
    110  H    Isotropic =    31.9838   Anisotropy =    11.1910
   XX=    29.4558   YX=    -0.3032   ZX=    -2.3189
   XY=    -0.6244   YY=    32.4517   ZY=     5.9945
   XZ=    -0.0355   YZ=     6.0092   ZZ=    34.0438
   Eigenvalues:    27.1115    29.3953    39.4444
 End of Minotr F.D. properties file   721 does not exist.
 End of Minotr F.D. properties file   722 does not exist.
 End of Minotr F.D. properties file   788 does not exist.
 Hyperfine terms turned off by default for NAtoms > 100.

 **********************************************************************

            Population analysis using the SCF Density.

 **********************************************************************

 Orbital symmetries:
       Occupied  (A) (A) (A) (A) (A) (A) (A) (A) (A) (A) (A) (A)
                 (A) (A) (A) (A) (A) (A) (A) (A) (A) (A) (A) (A)
                 (A) (A) (A) (A) (A) (A) (A) (A) (A) (A) (A) (A)
                 (A) (A) (A) (A) (A) (A) (A) (A) (A) (A) (A) (A)
                 (A) (A) (A) (A) (A) (A) (A) (A) (A) (A) (A) (A)
                 (A) (A) (A) (A) (A) (A) (A) (A) (A) (A) (A) (A)
                 (A) (A) (A) (A) (A) (A) (A) (A) (A) (A) (A) (A)
                 (A) (A) (A) (A) (A) (A) (A) (A) (A) (A) (A) (A)
                 (A) (A) (A) (A) (A) (A) (A) (A) (A) (A) (A) (A)
                 (A) (A) (A) (A) (A) (A) (A) (A) (A) (A) (A) (A)
                 (A) (A) (A) (A) (A) (A) (A) (A) (A) (A) (A) (A)
                 (A) (A) (A) (A) (A) (A) (A) (A) (A) (A) (A) (A)
                 (A) (A) (A) (A) (A) (A) (A) (A) (A) (A) (A) (A)
                 (A) (A) (A) (A) (A) (A) (A) (A) (A) (A) (A) (A)
                 (A) (A) (A) (A) (A) (A) (A) (A) (A) (A) (A) (A)
                 (A) (A) (A) (A) (A) (A) (A) (A) (A) (A) (A) (A)
                 (A) (A) (A) (A) (A)
       Virtual   (A) (A) (A) (A) (A) (A) (A) (A) (A) (A) (A) (A)
                 (A) (A) (A) (A) (A) (A) (A) (A) (A) (A) (A) (A)
                 (A) (A) (A) (A) (A) (A) (A) (A) (A) (A) (A) (A)
                 (A) (A) (A) (A) (A) (A) (A) (A) (A) (A) (A) (A)
                 (A) (A) (A) (A) (A) (A) (A) (A) (A) (A) (A) (A)
                 (A) (A) (A) (A) (A) (A) (A) (A) (A) (A) (A) (A)
                 (A) (A) (A) (A) (A) (A) (A) (A) (A) (A) (A) (A)
                 (A) (A) (A) (A) (A) (A) (A) (A) (A) (A) (A) (A)
                 (A) (A) (A) (A) (A) (A) (A) (A) (A) (A) (A) (A)
                 (A) (A) (A) (A) (A) (A) (A) (A) (A) (A) (A) (A)
                 (A) (A) (A) (A) (A) (A) (A) (A) (A)
 The electronic state is 1-A.
 Alpha  occ. eigenvalues --  -20.31224 -20.29465 -20.25085 -20.23986 -19.91900
 Alpha  occ. eigenvalues --  -15.47839 -15.33659 -15.32643 -15.29333 -11.17129
 Alpha  occ. eigenvalues --  -11.15465 -11.10932 -11.10012 -11.09977 -11.09362
 Alpha  occ. eigenvalues --  -11.09074 -11.08764 -11.08454 -11.07999 -11.07570
 Alpha  occ. eigenvalues --  -11.07196 -11.07089 -11.06809 -11.06185 -11.06044
 Alpha  occ. eigenvalues --  -11.05898 -11.05745 -11.05654 -11.05531 -11.05434
 Alpha  occ. eigenvalues --  -11.05238 -11.04974 -11.04853 -11.04823 -11.04667
 Alpha  occ. eigenvalues --  -11.04556 -11.04386 -11.03508 -11.03454 -11.03283
 Alpha  occ. eigenvalues --  -11.03165 -11.03032 -11.02933 -11.02869 -11.01322
 Alpha  occ. eigenvalues --  -11.01269 -11.01098 -11.01075 -11.00861 -11.00853
 Alpha  occ. eigenvalues --  -11.00822 -11.00806 -11.00577 -11.00412  -1.38398
 Alpha  occ. eigenvalues --   -1.36922  -1.28307  -1.28159  -1.26621  -1.21109
 Alpha  occ. eigenvalues --   -1.20747  -1.18494  -1.11858  -1.08645  -1.08120
 Alpha  occ. eigenvalues --   -1.06876  -1.06218  -1.04032  -1.03273  -1.00606
 Alpha  occ. eigenvalues --   -0.99808  -0.98644  -0.97947  -0.97218  -0.96512
 Alpha  occ. eigenvalues --   -0.95830  -0.94660  -0.93388  -0.93299  -0.92194
 Alpha  occ. eigenvalues --   -0.91820  -0.91139  -0.90101  -0.89249  -0.87771
 Alpha  occ. eigenvalues --   -0.86113  -0.84415  -0.82871  -0.82354  -0.80894
 Alpha  occ. eigenvalues --   -0.80641  -0.78818  -0.78732  -0.77922  -0.76197
 Alpha  occ. eigenvalues --   -0.76080  -0.74390  -0.73264  -0.72351  -0.72182
 Alpha  occ. eigenvalues --   -0.71226  -0.70318  -0.69463  -0.68793  -0.66865
 Alpha  occ. eigenvalues --   -0.65788  -0.64195  -0.64007  -0.63794  -0.62834
 Alpha  occ. eigenvalues --   -0.62573  -0.61912  -0.61826  -0.61647  -0.60895
 Alpha  occ. eigenvalues --   -0.60275  -0.59705  -0.59294  -0.59232  -0.58871
 Alpha  occ. eigenvalues --   -0.58206  -0.57802  -0.57588  -0.57257  -0.57056
 Alpha  occ. eigenvalues --   -0.56665  -0.56074  -0.55985  -0.55712  -0.55664
 Alpha  occ. eigenvalues --   -0.55145  -0.54995  -0.54486  -0.54141  -0.53962
 Alpha  occ. eigenvalues --   -0.53609  -0.52972  -0.52785  -0.52573  -0.52086
 Alpha  occ. eigenvalues --   -0.52011  -0.51117  -0.50608  -0.50407  -0.50318
 Alpha  occ. eigenvalues --   -0.49831  -0.49729  -0.49455  -0.48890  -0.48576
 Alpha  occ. eigenvalues --   -0.48480  -0.47851  -0.47608  -0.47408  -0.46738
 Alpha  occ. eigenvalues --   -0.46324  -0.46161  -0.45888  -0.45424  -0.45200
 Alpha  occ. eigenvalues --   -0.45042  -0.44812  -0.44618  -0.44107  -0.43738
 Alpha  occ. eigenvalues --   -0.43537  -0.43363  -0.43215  -0.42340  -0.42221
 Alpha  occ. eigenvalues --   -0.41892  -0.41432  -0.40990  -0.40861  -0.40497
 Alpha  occ. eigenvalues --   -0.40264  -0.39471  -0.39298  -0.38681  -0.37522
 Alpha  occ. eigenvalues --   -0.37171  -0.36542  -0.35528  -0.35182  -0.34495
 Alpha  occ. eigenvalues --   -0.33762  -0.33107  -0.32396  -0.32159  -0.30738
 Alpha  occ. eigenvalues --   -0.26753  -0.26353  -0.25957  -0.20913  -0.19431
 Alpha  occ. eigenvalues --   -0.15778  -0.15607
 Alpha virt. eigenvalues --    0.27327   0.27906   0.28286   0.29871   0.30172
 Alpha virt. eigenvalues --    0.31838   0.46689   0.47413   0.49116   0.49270
 Alpha virt. eigenvalues --    0.50310   0.50547   0.50693   0.50868   0.52814
 Alpha virt. eigenvalues --    0.53136   0.54467   0.55471   0.55686   0.56489
 Alpha virt. eigenvalues --    0.56832   0.57706   0.58323   0.58599   0.58734
 Alpha virt. eigenvalues --    0.59093   0.59544   0.60286   0.60886   0.61361
 Alpha virt. eigenvalues --    0.61639   0.62059   0.62524   0.62740   0.63259
 Alpha virt. eigenvalues --    0.63347   0.63815   0.64049   0.64309   0.64539
 Alpha virt. eigenvalues --    0.64690   0.65105   0.65219   0.65641   0.65774
 Alpha virt. eigenvalues --    0.66049   0.66715   0.66874   0.66961   0.67590
 Alpha virt. eigenvalues --    0.67958   0.68052   0.68323   0.68777   0.69018
 Alpha virt. eigenvalues --    0.69112   0.69283   0.69454   0.69947   0.70099
 Alpha virt. eigenvalues --    0.70224   0.70886   0.70932   0.71082   0.71312
 Alpha virt. eigenvalues --    0.71695   0.71854   0.72246   0.72493   0.72637
 Alpha virt. eigenvalues --    0.73148   0.73350   0.73607   0.73937   0.74128
 Alpha virt. eigenvalues --    0.74503   0.74600   0.74998   0.75233   0.75420
 Alpha virt. eigenvalues --    0.75552   0.75785   0.76084   0.76312   0.76560
 Alpha virt. eigenvalues --    0.76932   0.77282   0.77310   0.77391   0.77509
 Alpha virt. eigenvalues --    0.77835   0.77943   0.78616   0.78666   0.79224
 Alpha virt. eigenvalues --    0.79558   0.79985   0.80201   0.80259   0.80887
 Alpha virt. eigenvalues --    0.81169   0.81435   0.81741   0.81878   0.82333
 Alpha virt. eigenvalues --    0.82545   0.83499   0.83845   0.84101   0.84910
 Alpha virt. eigenvalues --    0.85816   0.86399   0.86760   0.87068   0.88151
 Alpha virt. eigenvalues --    0.88908   0.90240   0.91615   0.92262   0.94886
 Alpha virt. eigenvalues --    0.95562   0.96370   0.98922   1.00834   1.02876
 Alpha virt. eigenvalues --    1.11547   1.12329   1.16705   1.17125
          Condensed to atoms (all electrons):
 Mulliken charges:
               1
     1  C   -0.076444
     2  C   -0.000087
     3  C   -0.062892
     4  C   -0.091806
     5  C    0.094366
     6  C   -0.015199
     7  N   -0.283608
     8  C    0.016554
     9  C    0.131872
    10  C    0.038909
    11  C   -0.114968
    12  C   -0.107969
    13  C    0.040998
    14  N   -0.294729
    15  C   -0.012834
    16  C   -0.095463
    17  C   -0.100334
    18  C   -0.094703
    19  C   -0.020360
    20  C   -0.099195
    21  C   -0.062735
    22  C    0.314081
    23  O   -0.265914
    24  O   -0.261519
    25  C   -0.056940
    26  C   -0.075988
    27  C   -0.109261
    28  C    0.000345
    29  C   -0.072526
    30  C   -0.060751
    31  C   -0.091636
    32  C    0.087763
    33  C   -0.014511
    34  N   -0.287056
    35  C    0.020690
    36  C    0.128344
    37  C    0.040674
    38  C   -0.115944
    39  C   -0.104907
    40  C    0.028078
    41  N   -0.085964
    42  C   -0.007905
    43  C   -0.110850
    44  C   -0.102119
    45  C   -0.106727
    46  C   -0.012189
    47  C   -0.111513
    48  C   -0.067158
    49  C    0.320369
    50  O   -0.279143
    51  O   -0.253992
    52  C   -0.055668
    53  C   -0.079409
    54  O   -0.455011
    55  H    0.064040
    56  H    0.054286
    57  H    0.056766
    58  H    0.045658
    59  H    0.053922
    60  H    0.047377
    61  H    0.047488
    62  H    0.049645
    63  H    0.045503
    64  H    0.058287
    65  H    0.049117
    66  H    0.052682
    67  H    0.047606
    68  H    0.050409
    69  H    0.059042
    70  H    0.057724
    71  H    0.060625
    72  H    0.051743
    73  H    0.052160
    74  H    0.071748
    75  H    0.061903
    76  H    0.075206
    77  H    0.071917
    78  H    0.071720
    79  H    0.054907
    80  H    0.074162
    81  H    0.068560
    82  H    0.055430
    83  H    0.060586
    84  H    0.089485
    85  H    0.055552
    86  H    0.056708
    87  H    0.086629
    88  H    0.052867
    89  H    0.060131
    90  H    0.055694
    91  H    0.051439
    92  H    0.088478
    93  H    0.080304
    94  H    0.065486
    95  H    0.057312
    96  H    0.056870
    97  H    0.057486
    98  H    0.082168
    99  H    0.071432
   100  H    0.088666
   101  H    0.067905
   102  H    0.065665
   103  H    0.054978
   104  H    0.067197
   105  H    0.072923
   106  H    0.078899
   107  H    0.075679
   108  H    0.075037
   109  H    0.073065
   110  H    0.056608
 Sum of Mulliken charges =  -0.00000
 Mulliken charges with hydrogens summed into heavy atoms:
               1
     1  C   -0.012403
     2  C   -0.000087
     3  C   -0.008606
     4  C   -0.035040
     5  C    0.094366
     6  C   -0.015199
     7  N   -0.283608
     8  C    0.016554
     9  C    0.131872
    10  C    0.084567
    11  C   -0.013669
    12  C   -0.010835
    13  C    0.040998
    14  N   -0.294729
    15  C    0.090956
    16  C    0.006336
    17  C   -0.002319
    18  C    0.022063
    19  C    0.092008
    20  C    0.024713
    21  C   -0.000831
    22  C    0.314081
    23  O   -0.265914
    24  O   -0.261519
    25  C    0.161903
    26  C    0.121641
    27  C    0.006755
    28  C    0.000345
    29  C    0.016959
    30  C   -0.005199
    31  C   -0.034928
    32  C    0.087763
    33  C   -0.014511
    34  N   -0.287056
    35  C    0.020690
    36  C    0.128344
    37  C    0.127303
    38  C   -0.002946
    39  C    0.002227
    40  C    0.028078
    41  N   -0.085964
    42  C    0.160878
    43  C    0.011947
    44  C    0.012236
    45  C    0.046873
    46  C    0.144382
    47  C    0.009129
    48  C    0.000039
    49  C    0.320369
    50  O   -0.279143
    51  O   -0.253992
    52  C    0.171834
    53  C    0.125301
    54  O   -0.455011
 Electronic spatial extent (au):  <R**2>=          37516.3743
 Charge=              0.0000 electrons
 Dipole moment (field-independent basis, Debye):
    X=              1.8332    Y=             -1.7929    Z=              2.7685  Tot=              3.7736
 Quadrupole moment (field-independent basis, Debye-Ang):
   XX=           -271.0645   YY=           -289.9903   ZZ=           -303.5539
   XY=             -3.5365   XZ=              9.4822   YZ=             -4.8883
 Traceless Quadrupole moment (field-independent basis, Debye-Ang):
   XX=             17.1384   YY=             -1.7874   ZZ=            -15.3510
   XY=             -3.5365   XZ=              9.4822   YZ=             -4.8883
 Octapole moment (field-independent basis, Debye-Ang**2):
  XXX=             93.0338  YYY=            -42.7614  ZZZ=             39.5472  XYY=             15.4091
  XXY=             27.7141  XXZ=             57.7100  XZZ=              4.8800  YZZ=            -27.1069
  YYZ=             28.7810  XYZ=              4.8020
 Hexadecapole moment (field-independent basis, Debye-Ang**3):
 XXXX=         -31143.6261 YYYY=          -8933.3983 ZZZZ=          -4730.5210 XXXY=             98.7929
 XXXZ=           -218.6108 YYYX=            -10.7838 YYYZ=             57.1812 ZZZX=           -202.7155
 ZZZY=            -69.2108 XXYY=          -7015.4423 XXZZ=          -6134.1676 YYZZ=          -2269.3130
 XXYZ=            -65.6702 YYXZ=           -106.2029 ZZXY=             90.3225
 N-N= 8.139510457313D+03 E-N=-2.165626684061D+04  KE= 2.279156816643D+03
 ******************************Gaussian NBO Version 3.1******************************
             N A T U R A L   A T O M I C   O R B I T A L   A N D
          N A T U R A L   B O N D   O R B I T A L   A N A L Y S I S
 ******************************Gaussian NBO Version 3.1******************************
       /RESON  / : Allow strongly delocalized NBO set
       /NLMO   / : Form Natural Localized Molecular Orbitals
       /NMR /    : Analyze NMR Sheilding Tensor 

 Analyzing the SCF density

 Job title: pleiokomenine_C_1a                                              

 Storage needed:    355564 in NPA,    438187 in NBO,   2133784 in NLMO ( 104796000 available)
 GSVD:  LWork=     -108884 too small for GESVD, short by      536270 words or      536270 for optimal perf.


 NATURAL POPULATIONS:  Natural atomic orbital occupancies 
                                                          
   NAO  Atom  No  lang   Type(AO)    Occupancy      Energy
 ----------------------------------------------------------
     1    C    1  S      Cor( 1S)     1.99992     -10.93352
     2    C    1  S      Val( 2S)     1.07959      -0.16541
     3    C    1  px     Val( 2p)     0.98942       0.10904
     4    C    1  py     Val( 2p)     0.98459       0.15134
     5    C    1  pz     Val( 2p)     1.00521       0.09372
 
     6    C    2  S      Cor( 1S)     1.99990     -10.94394
     7    C    2  S      Val( 2S)     1.07814      -0.17170
     8    C    2  px     Val( 2p)     0.95673       0.12856
     9    C    2  py     Val( 2p)     0.96814       0.16811
    10    C    2  pz     Val( 2p)     0.98350       0.10585
 
    11    C    3  S      Cor( 1S)     1.99994     -10.93667
    12    C    3  S      Val( 2S)     1.08327      -0.17118
    13    C    3  px     Val( 2p)     0.98426       0.11388
    14    C    3  py     Val( 2p)     0.98252       0.14817
    15    C    3  pz     Val( 2p)     0.98419       0.10351
 
    16    C    4  S      Cor( 1S)     1.99993     -10.92954
    17    C    4  S      Val( 2S)     1.07091      -0.16172
    18    C    4  px     Val( 2p)     1.01563       0.10069
    19    C    4  py     Val( 2p)     0.98436       0.15257
    20    C    4  pz     Val( 2p)     1.01928       0.09192
 
    21    C    5  S      Cor( 1S)     1.99986     -10.97858
    22    C    5  S      Val( 2S)     1.05889      -0.17333
    23    C    5  px     Val( 2p)     0.91945       0.12057
    24    C    5  py     Val( 2p)     0.97154       0.15596
    25    C    5  pz     Val( 2p)     0.93155       0.10077
 
    26    C    6  S      Cor( 1S)     1.99990     -10.93577
    27    C    6  S      Val( 2S)     1.08437      -0.17833
    28    C    6  px     Val( 2p)     0.99652       0.11449
    29    C    6  py     Val( 2p)     0.95135       0.15120
    30    C    6  pz     Val( 2p)     0.99326       0.10884
 
    31    N    7  S      Cor( 1S)     1.99998     -15.25828
    32    N    7  S      Val( 2S)     1.38993      -0.57675
    33    N    7  px     Val( 2p)     1.18773      -0.01857
    34    N    7  py     Val( 2p)     1.19047      -0.02158
    35    N    7  pz     Val( 2p)     1.50471      -0.14058
 
    36    C    8  S      Cor( 1S)     1.99996     -10.99513
    37    C    8  S      Val( 2S)     1.10677      -0.21974
    38    C    8  px     Val( 2p)     0.94492       0.11233
    39    C    8  py     Val( 2p)     0.95810       0.12646
    40    C    8  pz     Val( 2p)     0.97346       0.08875
 
    41    C    9  S      Cor( 1S)     1.99996     -11.03988
    42    C    9  S      Val( 2S)     1.10989      -0.24355
    43    C    9  px     Val( 2p)     0.94175       0.10240
    44    C    9  py     Val( 2p)     0.87492       0.12309
    45    C    9  pz     Val( 2p)     0.89957       0.10282
 
    46    C   10  S      Cor( 1S)     1.99994     -11.00363
    47    C   10  S      Val( 2S)     1.09365      -0.20534
    48    C   10  px     Val( 2p)     0.96516       0.09188
    49    C   10  py     Val( 2p)     0.88923       0.12076
    50    C   10  pz     Val( 2p)     0.98115       0.10437
 
    51    C   11  S      Cor( 1S)     1.99994     -10.97053
    52    C   11  S      Val( 2S)     1.10414      -0.20550
    53    C   11  px     Val( 2p)     1.00684       0.08952
    54    C   11  py     Val( 2p)     0.99145       0.09715
    55    C   11  pz     Val( 2p)     0.98223       0.09389
 
    56    C   12  S      Cor( 1S)     1.99996     -10.96839
    57    C   12  S      Val( 2S)     1.08857      -0.18857
    58    C   12  px     Val( 2p)     1.01048       0.09618
    59    C   12  py     Val( 2p)     0.98268       0.09617
    60    C   12  pz     Val( 2p)     0.99632       0.09875
 
    61    C   13  S      Cor( 1S)     1.99998     -10.99589
    62    C   13  S      Val( 2S)     1.10027      -0.21305
    63    C   13  px     Val( 2p)     0.94880       0.11610
    64    C   13  py     Val( 2p)     0.94554       0.11998
    65    C   13  pz     Val( 2p)     0.94322       0.11909
 
    66    N   14  S      Cor( 1S)     1.99999     -15.22411
    67    N   14  S      Val( 2S)     1.42351      -0.57224
    68    N   14  px     Val( 2p)     1.29877      -0.04652
    69    N   14  py     Val( 2p)     1.16831       0.00756
    70    N   14  pz     Val( 2p)     1.39336      -0.07932
 
    71    C   15  S      Cor( 1S)     1.99994     -10.99979
    72    C   15  S      Val( 2S)     1.07023      -0.18090
    73    C   15  px     Val( 2p)     0.98853       0.08931
    74    C   15  py     Val( 2p)     0.96452       0.10035
    75    C   15  pz     Val( 2p)     0.93541       0.11701
 
    76    C   16  S      Cor( 1S)     1.99996     -10.97103
    77    C   16  S      Val( 2S)     1.08459      -0.18471
    78    C   16  px     Val( 2p)     0.96958       0.10642
    79    C   16  py     Val( 2p)     0.98751       0.10076
    80    C   16  pz     Val( 2p)     1.01661       0.10018
 
    81    C   17  S      Cor( 1S)     1.99995     -10.97254
    82    C   17  S      Val( 2S)     1.09066      -0.19086
    83    C   17  px     Val( 2p)     1.00043       0.09909
    84    C   17  py     Val( 2p)     0.97884       0.10199
    85    C   17  pz     Val( 2p)     0.99433       0.09812
 
    86    C   18  S      Cor( 1S)     1.99994     -10.96725
    87    C   18  S      Val( 2S)     1.09386      -0.18794
    88    C   18  px     Val( 2p)     0.99384       0.10086
    89    C   18  py     Val( 2p)     0.98535       0.09832
    90    C   18  pz     Val( 2p)     0.98804       0.10859
 
    91    C   19  S      Cor( 1S)     1.99995     -10.99270
    92    C   19  S      Val( 2S)     1.07367      -0.17925
    93    C   19  px     Val( 2p)     0.91866       0.13078
    94    C   19  py     Val( 2p)     0.99713       0.08793
    95    C   19  pz     Val( 2p)     0.97769       0.09138
 
    96    C   20  S      Cor( 1S)     1.99992     -10.97654
    97    C   20  S      Val( 2S)     1.10208      -0.20394
    98    C   20  px     Val( 2p)     1.01620       0.09273
    99    C   20  py     Val( 2p)     0.98389       0.09937
   100    C   20  pz     Val( 2p)     0.95882       0.09873
 
   101    C   21  S      Cor( 1S)     1.99994     -11.00224
   102    C   21  S      Val( 2S)     1.11405      -0.23427
   103    C   21  px     Val( 2p)     1.00796       0.07418
   104    C   21  py     Val( 2p)     0.99228       0.07735
   105    C   21  pz     Val( 2p)     0.96396       0.08996
 
   106    C   22  S      Cor( 1S)     1.99990     -11.10198
   107    C   22  S      Val( 2S)     1.05820      -0.25433
   108    C   22  px     Val( 2p)     0.83628       0.07784
   109    C   22  py     Val( 2p)     0.80740       0.11490
   110    C   22  pz     Val( 2p)     0.90240       0.10785
 
   111    O   23  S      Cor( 1S)     1.99999     -20.09035
   112    O   23  S      Val( 2S)     1.80750      -1.04779
   113    O   23  px     Val( 2p)     1.32219      -0.12438
   114    O   23  py     Val( 2p)     1.60018      -0.22220
   115    O   23  pz     Val( 2p)     1.56942      -0.19963
 
   116    O   24  S      Cor( 1S)     1.99999     -20.20534
   117    O   24  S      Val( 2S)     1.73285      -1.02164
   118    O   24  px     Val( 2p)     1.71166      -0.30848
   119    O   24  py     Val( 2p)     1.43617      -0.18383
   120    O   24  pz     Val( 2p)     1.39312      -0.16962
 
   121    C   25  S      Cor( 1S)     1.99984     -11.04011
   122    C   25  S      Val( 2S)     1.07687      -0.22216
   123    C   25  px     Val( 2p)     1.03324       0.04598
   124    C   25  py     Val( 2p)     1.00708       0.04593
   125    C   25  pz     Val( 2p)     0.84945       0.08606
 
   126    C   26  S      Cor( 1S)     1.99993     -11.01114
   127    C   26  S      Val( 2S)     1.06288      -0.18851
   128    C   26  px     Val( 2p)     0.96739       0.08106
   129    C   26  py     Val( 2p)     0.97228       0.08087
   130    C   26  pz     Val( 2p)     1.01125       0.06869
 
   131    C   27  S      Cor( 1S)     1.99996     -10.97181
   132    C   27  S      Val( 2S)     1.08235      -0.17648
   133    C   27  px     Val( 2p)     0.98053       0.10696
   134    C   27  py     Val( 2p)     1.02205       0.09770
   135    C   27  pz     Val( 2p)     1.00090       0.10190
 
   136    C   28  S      Cor( 1S)     1.99990     -10.94570
   137    C   28  S      Val( 2S)     1.07768      -0.17245
   138    C   28  px     Val( 2p)     0.95174       0.14643
   139    C   28  py     Val( 2p)     0.96005       0.18596
   140    C   28  pz     Val( 2p)     0.99702       0.06495
 
   141    C   29  S      Cor( 1S)     1.99993     -10.93263
   142    C   29  S      Val( 2S)     1.08449      -0.16549
   143    C   29  px     Val( 2p)     0.99188       0.12724
   144    C   29  py     Val( 2p)     0.98718       0.16870
   145    C   29  pz     Val( 2p)     0.98835       0.06655
 
   146    C   30  S      Cor( 1S)     1.99994     -10.94045
   147    C   30  S      Val( 2S)     1.08368      -0.17431
   148    C   30  px     Val( 2p)     0.97797       0.13301
   149    C   30  py     Val( 2p)     0.97591       0.16495
   150    C   30  pz     Val( 2p)     0.99390       0.05825
 
   151    C   31  S      Cor( 1S)     1.99993     -10.93395
   152    C   31  S      Val( 2S)     1.07129      -0.16665
   153    C   31  px     Val( 2p)     1.00390       0.11966
   154    C   31  py     Val( 2p)     0.97026       0.16983
   155    C   31  pz     Val( 2p)     1.04419       0.04312
 
   156    C   32  S      Cor( 1S)     1.99985     -10.98253
   157    C   32  S      Val( 2S)     1.05961      -0.17972
   158    C   32  px     Val( 2p)     0.89734       0.13249
   159    C   32  py     Val( 2p)     0.97049       0.16753
   160    C   32  pz     Val( 2p)     0.96115       0.05654
 
   161    C   33  S      Cor( 1S)     1.99990     -10.94014
   162    C   33  S      Val( 2S)     1.08039      -0.17984
   163    C   33  px     Val( 2p)     0.98965       0.13755
   164    C   33  py     Val( 2p)     0.93878       0.16127
   165    C   33  pz     Val( 2p)     1.02077       0.06007
 
   166    N   34  S      Cor( 1S)     1.99998     -15.26886
   167    N   34  S      Val( 2S)     1.40675      -0.59544
   168    N   34  px     Val( 2p)     1.43358      -0.12228
   169    N   34  py     Val( 2p)     1.07188       0.01233
   170    N   34  pz     Val( 2p)     1.36338      -0.10035
 
   171    C   35  S      Cor( 1S)     1.99996     -11.01755
   172    C   35  S      Val( 2S)     1.11004      -0.24222
   173    C   35  px     Val( 2p)     0.96792       0.06783
   174    C   35  py     Val( 2p)     0.96260       0.10311
   175    C   35  pz     Val( 2p)     0.93780       0.09963
 
   176    C   36  S      Cor( 1S)     1.99996     -11.05564
   177    C   36  S      Val( 2S)     1.11226      -0.26183
   178    C   36  px     Val( 2p)     0.92160       0.08187
   179    C   36  py     Val( 2p)     0.84605       0.11870
   180    C   36  pz     Val( 2p)     0.94866       0.07622
 
   181    C   37  S      Cor( 1S)     1.99991     -11.03988
   182    C   37  S      Val( 2S)     1.12094      -0.26144
   183    C   37  px     Val( 2p)     1.01389       0.06043
   184    C   37  py     Val( 2p)     0.93145       0.06145
   185    C   37  pz     Val( 2p)     0.86056       0.09773
 
   186    C   38  S      Cor( 1S)     1.99994     -10.98523
   187    C   38  S      Val( 2S)     1.10478      -0.22047
   188    C   38  px     Val( 2p)     1.00217       0.07726
   189    C   38  py     Val( 2p)     0.98801       0.08264
   190    C   38  pz     Val( 2p)     0.99158       0.07717
 
   191    C   39  S      Cor( 1S)     1.99996     -10.98745
   192    C   39  S      Val( 2S)     1.09224      -0.21013
   193    C   39  px     Val( 2p)     1.01416       0.07726
   194    C   39  py     Val( 2p)     0.97784       0.07954
   195    C   39  pz     Val( 2p)     0.98880       0.08199
 
   196    C   40  S      Cor( 1S)     1.99998     -11.02299
   197    C   40  S      Val( 2S)     1.10490      -0.24583
   198    C   40  px     Val( 2p)     0.94337       0.09147
   199    C   40  py     Val( 2p)     0.94955       0.09276
   200    C   40  pz     Val( 2p)     0.95235       0.08069
 
   201    N   41  S      Cor( 1S)     1.99999     -15.41707
   202    N   41  S      Val( 2S)     1.40221      -0.66088
   203    N   41  px     Val( 2p)     1.20771      -0.11217
   204    N   41  py     Val( 2p)     1.16820      -0.10368
   205    N   41  pz     Val( 2p)     1.19604      -0.11334
 
   206    C   42  S      Cor( 1S)     1.99991     -11.03497
   207    C   42  S      Val( 2S)     1.08941      -0.23192
   208    C   42  px     Val( 2p)     1.01571       0.04601
   209    C   42  py     Val( 2p)     0.84568       0.09452
   210    C   42  pz     Val( 2p)     1.00589       0.05978
 
   211    C   43  S      Cor( 1S)     1.99997     -10.99861
   212    C   43  S      Val( 2S)     1.07887      -0.20942
   213    C   43  px     Val( 2p)     1.02155       0.06587
   214    C   43  py     Val( 2p)     1.00469       0.06519
   215    C   43  pz     Val( 2p)     0.97619       0.07227
 
   216    C   44  S      Cor( 1S)     1.99996     -10.99521
   217    C   44  S      Val( 2S)     1.08467      -0.20979
   218    C   44  px     Val( 2p)     1.01606       0.06974
   219    C   44  py     Val( 2p)     0.98059       0.07584
   220    C   44  pz     Val( 2p)     0.98851       0.07559
 
   221    C   45  S      Cor( 1S)     1.99994     -10.98811
   222    C   45  S      Val( 2S)     1.09329      -0.20835
   223    C   45  px     Val( 2p)     1.02551       0.08189
   224    C   45  py     Val( 2p)     0.96984       0.08061
   225    C   45  pz     Val( 2p)     0.99242       0.07705
 
   226    C   46  S      Cor( 1S)     1.99992     -11.02762
   227    C   46  S      Val( 2S)     1.09090      -0.22639
   228    C   46  px     Val( 2p)     0.85469       0.09300
   229    C   46  py     Val( 2p)     1.00478       0.06013
   230    C   46  pz     Val( 2p)     1.01122       0.05560
 
   231    C   47  S      Cor( 1S)     1.99992     -10.99579
   232    C   47  S      Val( 2S)     1.09923      -0.22365
   233    C   47  px     Val( 2p)     0.96688       0.07367
   234    C   47  py     Val( 2p)     0.97349       0.07919
   235    C   47  pz     Val( 2p)     1.03555       0.06130
 
   236    C   48  S      Cor( 1S)     1.99995     -11.01501
[...]
  105       1.3151        0.5521       0.7629         0.2818       1.0333
  106      26.0688       -0.1002      26.1690         0.4258      25.6429
  107       1.7265        3.7142      -1.9877        -0.0817       1.8082
 Sum       30.7526        5.0552      25.6974         0.3207      30.4319

 Contributions to Isotropic shielding for atom   95 (    32.5923 ppm):
                         Standard Origin              Atomic Origin
 NLMO      Total    Paramagnetic  Diamagnetic   Paramagnetic  Diamagnetic
   98      -0.1402        0.3371      -0.4773        -1.2124       1.0722
  100      -0.2206        0.4726      -0.6932        -1.0214       0.8008
  102       1.2043        0.7207       0.4836         0.4036       0.8007
  105       1.1567        0.7861       0.3706         0.2656       0.8910
  106       2.0359        3.8283      -1.7924         0.2079       1.8280
  107      26.3731       -0.2601      26.6333         0.5282      25.8449
  114      -0.1715       -1.3369       1.1654        -0.3076       0.1361
  116      -0.3255       -1.7754       1.4499        -0.6429       0.3173
 Sum       29.9122        2.7722      27.1399        -1.7790      31.6911

 Contributions to Isotropic shielding for atom   96 (    32.6477 ppm):
                         Standard Origin              Atomic Origin
 NLMO      Total    Paramagnetic  Diamagnetic   Paramagnetic  Diamagnetic
   97       2.0129       -1.6090       3.6219         1.2000       0.8129
  102       0.2399       -1.3772       1.6172        -0.5472       0.7871
  105       1.4147        0.1559       1.2588         0.5381       0.8766
  106       0.0968       -0.9361       1.0329        -0.8158       0.9126
  108      26.1026        0.5489      25.5537         0.3112      25.7914
  109       1.7252        1.6513       0.0738        -0.0642       1.7893
 Sum       31.5921       -1.5662      33.1583         0.6222      30.9698

 Contributions to Isotropic shielding for atom   97 (    32.5100 ppm):
                         Standard Origin              Atomic Origin
 NLMO      Total    Paramagnetic  Diamagnetic   Paramagnetic  Diamagnetic
   97       1.0925        1.0389       0.0536         0.3195       0.7730
   98      -0.2215        0.9450      -1.1666        -1.2686       1.0471
  105       0.4777        3.0982      -2.6205        -0.4681       0.9458
  108       2.3269        0.6611       1.6658         0.5519       1.7750
  109      26.3719       -0.2197      26.5916         0.5880      25.7840
  117      -0.0362       -1.5916       1.5554        -0.8852       0.8490
 Sum       30.0113        3.9320      26.0793        -1.1625      31.1738

 Contributions to Isotropic shielding for atom   98 (    31.6533 ppm):
                         Standard Origin              Atomic Origin
 NLMO      Total    Paramagnetic  Diamagnetic   Paramagnetic  Diamagnetic
   71      -0.7863       -0.0054      -0.7809        -1.8898       1.1034
   80      -0.1059        0.7196      -0.8255        -1.1923       1.0864
   85       1.9891       -1.5306       3.5197         1.1487       0.8404
   89      -0.1111        0.1517      -0.2629        -1.0458       0.9346
  100       0.5105       -0.8021       1.3127        -0.1401       0.6507
  111      25.6747        0.1876      25.4871         0.5227      25.1520
  112       1.6400        2.4765      -0.8365        -0.3689       2.0089
  113      -0.0790       -0.7600       0.6810        -1.1742       1.0952
  121       0.0559       -1.1013       1.1572        -0.7369       0.7928
 Sum       28.7879       -0.6640      29.4519        -4.8765      33.6644

 Contributions to Isotropic shielding for atom   99 (    32.8649 ppm):
                         Standard Origin              Atomic Origin
 NLMO      Total    Paramagnetic  Diamagnetic   Paramagnetic  Diamagnetic
   83      -0.4059        1.2536      -1.6595        -1.0072       0.6013
   85       1.1241        0.3287       0.7954         0.3895       0.7346
   87      -0.2846       -0.1698      -0.1148        -1.1223       0.8376
   89      -0.2332        0.3107      -0.5439        -1.1533       0.9201
  100       0.3935       -0.6376       1.0311         0.3489       0.0446
  110       0.4127        2.3344      -1.9217        -0.2456       0.6583
  111       2.0302        2.4362      -0.4059         0.0980       1.9322
  112      26.0560       -0.1952      26.2511         0.5804      25.4756
  118       0.7452       -1.2025       1.9476        -0.0789       0.8241
  120       1.4031       -0.5556       1.9587         0.4881       0.9150
  121      -0.2801       -3.3935       3.1134        -1.2541       0.9740
  123       0.3493       -0.9591       1.3084        -0.4127       0.7620
  126       0.0487       -1.7497       1.7983        -0.4443       0.4930
  191      -0.5730        1.3286      -1.9016         0.2935      -0.8665
 Sum       30.7860       -0.8709      31.6569        -3.5201      34.3061

 Contributions to Isotropic shielding for atom  100 (    30.9680 ppm):
                         Standard Origin              Atomic Origin
 NLMO      Total    Paramagnetic  Diamagnetic   Paramagnetic  Diamagnetic
   99      -0.4355        0.7833      -1.2187        -1.1054       0.6699
  100       1.3516       -0.7661       2.1177         0.4835       0.8681
  101       0.0505        0.9390      -0.8886        -0.9774       1.0279
  111      -0.0453        0.0518      -0.0971        -1.2209       1.1756
  113      25.8345        0.4930      25.3414         0.9242      24.9103
  114       1.0952        2.1363      -1.0411        -0.6582       1.7534
  121       0.0654       -1.0713       1.1366        -0.5528       0.6182
  195       0.3547       -1.0999       1.4546         1.1907      -0.8360
 Sum       28.2710        1.4662      26.8048        -1.9163      30.1873

 Contributions to Isotropic shielding for atom  101 (    31.4941 ppm):
                         Standard Origin              Atomic Origin
 NLMO      Total    Paramagnetic  Diamagnetic   Paramagnetic  Diamagnetic
   89      -0.3726        0.6053      -0.9778        -1.0484       0.6759
   99      -0.5535        1.2020      -1.7555        -1.4591       0.9056
  100       1.1036       -0.5954       1.6990         0.5195       0.5841
  107      -0.2473       -1.6234       1.3761        -0.7763       0.5290
  113       1.3624        2.2994      -0.9370        -0.5395       1.9019
  114      26.5785        0.2756      26.3028         1.0224      25.5560
  116      -0.4800       -2.4663       1.9863        -0.5022       0.0222
  120       0.6870       -0.6629       1.3499         0.2671       0.4199
  121       0.2559       -2.2305       2.4864        -0.7165       0.9724
  191      -0.6904        1.3023      -1.9926         0.1972      -0.8876
 Sum       27.6435       -1.8940      29.5375        -3.0359      30.6794

 Contributions to Isotropic shielding for atom  102 (    31.6664 ppm):
                         Standard Origin              Atomic Origin
 NLMO      Total    Paramagnetic  Diamagnetic   Paramagnetic  Diamagnetic
   87       0.3485       -1.0216       1.3701         0.0617       0.2868
   97      -0.2275        1.1472      -1.3747        -0.9487       0.7213
   98       1.8614       -1.3531       3.2145         0.9237       0.9377
  105      -0.1098        0.2341      -0.3440        -1.0445       0.9347
  107      -0.3630       -1.9169       1.5540        -0.7249       0.3620
  114      -0.3972       -1.8270       1.4299        -0.2618      -0.1353
  115       0.4425        2.0295      -1.5870        -0.4109       0.8534
  116      26.2566       -0.1513      26.4079         0.6033      25.6533
  117       1.5721        3.3885      -1.8164        -0.3369       1.9091
  118       0.1245       -0.1152       0.2397        -0.9679       1.0924
  120       0.4850       -1.6290       2.1140        -0.3941       0.8791
  121       0.6152       -2.5602       3.1753        -1.0910       1.7062
  191      -0.7463        1.1177      -1.8640         0.1612      -0.9076
 Sum       29.8620       -2.6573      32.5193        -4.4308      34.2929

 Contributions to Isotropic shielding for atom  103 (    32.2648 ppm):
                         Standard Origin              Atomic Origin
 NLMO      Total    Paramagnetic  Diamagnetic   Paramagnetic  Diamagnetic
   87       0.3947       -0.8905       1.2851         0.1905       0.2042
   94      -0.2097        1.3861      -1.5958        -1.0657       0.8560
   97      -0.2334        1.4279      -1.6613        -1.0480       0.8146
   98       1.9362       -0.5951       2.5313         0.9466       0.9896
  115       0.3980        2.7405      -2.3426        -0.6721       1.0700
  116       1.6721        2.9914      -1.3193        -0.2271       1.8992
  117      26.4636       -0.4299      26.8935         0.6294      25.8342
  119      -0.1580       -0.7576       0.5997        -1.3087       1.1508
  121       0.2563       -0.8595       1.1158        -0.7740       1.0303
 Sum       30.5198        5.0134      25.5065        -3.3291      33.8490

 Contributions to Isotropic shielding for atom  104 (    31.2333 ppm):
                         Standard Origin              Atomic Origin
 NLMO      Total    Paramagnetic  Diamagnetic   Paramagnetic  Diamagnetic
   81      -0.5272        1.3676      -1.8948        -1.2325       0.7052
   82      -0.0564        0.0116      -0.0679        -1.0012       0.9449
   86      -0.3676        1.5325      -1.9002        -1.4818       1.1142
   87       2.0506       -0.3783       2.4288         1.1101       0.9405
   98       0.2780       -0.7938       1.0718         0.0620       0.2160
  115       1.3601        1.2563       0.1038         0.2353       1.1247
  117      -0.2423        0.1723      -0.4146        -1.4109       1.1686
  118      -0.0783        4.9588      -5.0371        -0.9652       0.8868
  119      25.9695       -0.6881      26.6576         0.4618      25.5077
  122       0.9589       -2.1490       3.1079        -0.7157       1.6746
  126       0.1535       -0.9391       1.0925        -0.2987       0.4521
  127      -0.2288       -2.2183       1.9894        -0.6479       0.4191
  193      -0.8568        0.3470      -1.2038         0.1463      -1.0031
 Sum       28.4130        2.4795      25.9334        -5.7383      34.1513

 Contributions to Isotropic shielding for atom  105 (    30.5753 ppm):
                         Standard Origin              Atomic Origin
 NLMO      Total    Paramagnetic  Diamagnetic   Paramagnetic  Diamagnetic
  120      -1.4118        1.0386      -2.4504        -2.3054       0.8936
  121      -0.6108        2.3461      -2.9569        -2.1715       1.5608
  122      -2.0365        1.5138      -3.5503        -2.8195       0.7830
  123       1.4103       -0.1498       1.5602        -0.0563       1.4666
  124      26.5090        0.6607      25.8483         1.2756      25.2334
  125       1.1340        4.6463      -3.5124        -0.9083       2.0422
  126       1.3878        1.1107       0.2771        -0.4841       1.8718
  191       0.6521       -1.7708       2.4228         1.4254      -0.7733
  192       0.8392        1.0628      -0.2236         1.0626      -0.2234
  193       1.6048       -1.1908       2.7956         1.6654      -0.0606
  194       0.5585        1.0811      -0.5226         0.0858       0.4727
 Sum       30.0365       10.3487      19.6878        -3.2302      33.2667

 Contributions to Isotropic shielding for atom  106 (    30.5114 ppm):
                         Standard Origin              Atomic Origin
 NLMO      Total    Paramagnetic  Diamagnetic   Paramagnetic  Diamagnetic
  120      -0.6885        0.3463      -1.0348        -1.3093       0.6209
  121      -0.1563        1.1570      -1.3133        -1.1871       1.0308
  122      -0.5731        0.4682      -1.0412        -0.6090       0.0359
  123       1.0260        0.9489       0.0771        -1.0499       2.0759
  124       0.5246        4.0532      -3.5285        -1.4606       1.9852
  125      26.0274        0.3595      25.6679         0.8560      25.1715
  126       1.2547        1.3903      -0.1356        -0.7407       1.9954
  191       0.2669       -0.7940       1.0609         0.6461      -0.3792
  193       1.0833       -1.0335       2.1168         1.5526      -0.4692
  194       1.0688        0.4861       0.5827         0.8123       0.2566
 Sum       29.8340        7.3820      22.4520        -2.4898      32.3237

 Contributions to Isotropic shielding for atom  107 (    30.6316 ppm):
                         Standard Origin              Atomic Origin
 NLMO      Total    Paramagnetic  Diamagnetic   Paramagnetic  Diamagnetic
  120      -0.9968        0.7316      -1.7284        -1.9047       0.9079
  121      -0.4818        1.5790      -2.0607        -2.0078       1.5261
  122      -1.4203        1.4881      -2.9084        -2.2704       0.8501
  123       2.8999       -5.1363       8.0362         1.4849       1.4150
  124       1.0966        1.6779      -0.5813        -0.7783       1.8749
  125       1.4408        1.9762      -0.5354        -0.6040       2.0448
  126      26.1624        1.0184      25.1439         1.0014      25.1610
  191       0.3752       -1.1579       1.5331         1.1417      -0.7665
 Sum       29.0760        2.1769      26.8991        -3.9373      33.0133

 Contributions to Isotropic shielding for atom  108 (    31.0000 ppm):
                         Standard Origin              Atomic Origin
 NLMO      Total    Paramagnetic  Diamagnetic   Paramagnetic  Diamagnetic
   76      -0.5227       -0.0109      -0.5117        -1.3794       0.8567
   81      -0.4662        0.9356      -1.4018        -1.1923       0.7261
   82       1.2028       -0.1915       1.3943         0.0124       1.1904
   86      -0.1759        0.8188      -0.9947        -1.0037       0.8277
   87      -0.2249        1.0193      -1.2442        -1.1068       0.8818
  118      -0.3561        0.5310      -0.8871        -1.0775       0.7214
  122       1.1045       -1.0929       2.1973         0.5137       0.5908
  125       0.0683       -1.2156       1.2838        -0.6494       0.7176
  127      26.0186        0.1917      25.8270         0.6549      25.3637
  128       1.4802        3.9620      -2.4818        -0.5044       1.9846
  129       1.6905        0.7211       0.9694        -0.1416       1.8321
  193      -1.0258        0.4995      -1.5253         0.2570      -1.2828
 Sum       28.7933        6.1680      22.6252        -5.6170      34.4102

 Contributions to Isotropic shielding for atom  109 (    30.7628 ppm):
                         Standard Origin              Atomic Origin
 NLMO      Total    Paramagnetic  Diamagnetic   Paramagnetic  Diamagnetic
   75      -0.5739        0.7204      -1.2943        -1.2902       0.7163
   76      -0.9417        0.2537      -1.1955        -2.3019       1.3602
   79      -0.4737        0.7841      -1.2578        -1.1033       0.6296
   82       1.2147        0.4181       0.7967        -0.0420       1.2567
  122       0.6754       -0.5289       1.2043         0.3682       0.3072
  125       0.0094       -1.1777       1.1872        -0.6069       0.6163
  127       1.5163        3.9053      -2.3890        -0.4522       1.9684
  128      26.0484        0.1047      25.9437         0.7094      25.3391
  129       1.6779        1.1309       0.5470        -0.1195       1.7974
 Sum       29.1528        5.6105      23.5423        -4.8384      33.9912

 Contributions to Isotropic shielding for atom  110 (    31.9838 ppm):
                         Standard Origin              Atomic Origin
 NLMO      Total    Paramagnetic  Diamagnetic   Paramagnetic  Diamagnetic
   76      -0.8091       -0.1046      -0.7045        -2.0231       1.2140
   79      -0.4189        0.6531      -1.0720        -1.0769       0.6579
   82       2.0716       -3.2380       5.3096         1.3049       0.7667
   86      -0.2153        0.6147      -0.8300        -1.2488       1.0334
  122       0.5235       -0.5730       1.0965        -0.0566       0.5802
  127       1.8145        1.5306       0.2839        -0.1004       1.9149
  128       1.8078        2.1554      -0.3475        -0.0880       1.8958
  129      26.4187        0.8218      25.5969         0.7403      25.6784
 Sum       31.1929        1.8600      29.3328        -2.5485      33.7414
 
 1\1\GINC-PCSN02\SP\RHF\STO-3G\C45H56N4O5\ABENIDD\30-May-2024\0\\# nmr=
 giao hf/sto-3g pop=nbo geom=connectivity\\pleiokomenine_C_1a\\0,1\C,0,
 0.,0.,0.\C,0,1.4021,0.,0.\C,0,2.0958,1.2289,0.\C,0,1.4114,2.4525,-0.00
 82\C,0,0.0285,2.445,-0.0042\C,0,-0.6619,1.2162,0.022\N,0,-0.8586,3.551
 6,-0.0179\C,0,-2.1332,1.5082,0.1897\C,0,-2.13,2.9361,-0.4643\C,0,-3.20
 29,0.6512,-0.4882\C,0,-2.0732,2.7821,-2.052\C,0,-3.2611,1.9798,-2.5863
 \C,0,-4.1157,1.4875,-1.4123\N,0,-4.0523,0.1985,0.6187\C,0,-4.964,-0.84
 73,0.2145\C,0,-5.9568,-0.2066,-0.7712\C,0,-5.2713,0.5823,-1.9038\C,0,-
 2.4257,1.311,1.7023\C,0,-3.1784,-0.0214,1.7485\C,0,-4.6258,2.7628,-0.6
 535\C,0,-3.4479,3.6995,-0.2205\C,0,-3.6585,4.3192,1.1545\O,0,-2.7975,4
 .5629,1.9867\O,0,-4.9704,4.6829,1.3021\C,0,-5.2654,5.3059,2.5526\C,0,-
 0.3838,4.813,-0.5492\C,0,2.1568,-1.3096,0.1007\C,0,2.3479,-1.7643,1.53
 17\C,0,1.2505,-2.2348,2.2652\C,0,3.6101,-1.6937,2.153\C,0,3.7799,-2.06
 26,3.4949\C,0,2.6767,-2.4744,4.2247\C,0,1.4247,-2.5705,3.5972\N,0,2.60
 98,-2.8062,5.6051\C,0,0.4121,-3.0966,4.5829\C,0,1.1653,-2.6336,5.8964\
 C,0,-1.0211,-2.5347,4.6047\C,0,0.8594,-1.0898,6.1438\C,0,-0.6404,-0.84
 61,6.3616\C,0,-1.4064,-2.1541,6.0744\N,0,-1.8837,-3.6015,3.951\C,0,-3.
 3493,-3.4885,4.2804\C,0,-3.6772,-3.1801,5.7279\C,0,-2.9187,-1.946,6.20
 05\C,0,0.2425,-4.6081,4.2856\C,0,-1.2517,-4.8969,4.3532\C,0,-0.9065,-3
 .1637,7.1646\C,0,0.6341,-3.3304,7.1581\C,0,1.0509,-4.7742,7.3741\O,0,0
 .3126,-5.7407,7.2247\O,0,2.3328,-4.8477,7.8248\C,0,2.8136,-6.1788,8.01
 22\C,0,3.6292,-2.2205,6.4634\O,0,-1.7964,-3.4817,2.5697\H,0,-0.5569,-0
 .9317,0.0409\H,0,3.1831,1.2365,0.0274\H,0,1.9694,3.3812,0.0021\H,0,-2.
 7511,-0.1955,-1.0232\H,0,-1.146,2.3026,-2.3899\H,0,-2.067,3.772,-2.527
 6\H,0,-3.8576,2.6023,-3.2648\H,0,-2.8923,1.1366,-3.1837\H,0,-4.4412,-1
 .6925,-0.2485\H,0,-5.5226,-1.2323,1.075\H,0,-6.5992,-0.9828,-1.2026\H,
 0,-6.6187,0.4745,-0.2204\H,0,-4.8733,-0.1473,-2.6218\H,0,-6.0194,1.173
 5,-2.4452\H,0,-3.084,2.0846,2.1015\H,0,-1.5378,1.2793,2.3442\H,0,-2.51
 13,-0.8781,1.6083\H,0,-3.7249,-0.1354,2.6893\H,0,-5.2991,3.3311,-1.309
 3\H,0,-5.2322,2.4728,0.2122\H,0,-3.4612,4.5753,-0.8872\H,0,-6.3375,5.5
 194,2.5795\H,0,-5.0261,4.6344,3.3833\H,0,-4.7217,6.251,2.6465\H,0,0.00
 25,4.7085,-1.5689\H,0,0.4086,5.2254,0.0845\H,0,-1.1929,5.5502,-0.5655\
 H,0,3.1283,-1.211,-0.4007\H,0,1.6247,-2.0901,-0.4591\H,0,0.272,-2.3334
 ,1.8038\H,0,4.4723,-1.3384,1.5932\H,0,4.7629,-1.9961,3.9461\H,0,-1.137
 1,-1.6563,3.9543\H,0,1.4084,-0.7237,7.0209\H,0,1.202,-0.4678,5.3074\H,
 0,-0.9811,-0.0329,5.7085\H,0,-0.8186,-0.5084,7.3905\H,0,-3.7296,-2.68,
 3.6425\H,0,-3.8116,-4.4263,3.9525\H,0,-4.7543,-2.9976,5.8197\H,0,-3.45
 95,-4.0439,6.363\H,0,-3.2305,-1.0806,5.6011\H,0,-3.1935,-1.7209,7.2381
 \H,0,0.5656,-4.8451,3.2617\H,0,0.8351,-5.2687,4.9163\H,0,-1.5717,-5.66
 75,3.6443\H,0,-1.6005,-5.1583,5.3499\H,0,-1.42,-4.1212,7.0857\H,0,-1.1
 97,-2.7873,8.1564\H,0,1.0087,-2.8045,8.0497\H,0,2.2482,-6.6803,8.8036\
 H,0,3.8617,-6.1202,8.3182\H,0,2.7576,-6.7439,7.0764\H,0,3.4028,-2.4076
 ,7.5175\H,0,4.6052,-2.6747,6.2618\H,0,3.7114,-1.1363,6.3263\\Version=E
 S64L-G16RevB.01\State=1-A\HF=-2300.2201169\RMSD=3.683e-09\Dipole=-0.25
 91576,0.1459766,1.4545375\Quadrupole=-0.9208848,-7.7424601,8.6633449,-
 3.6689398,2.3519671,-11.4059747\PG=C01 [X(C45H56N4O5)]\\@


 HONESTY IN A LAWYER IS LIKE A HEN'S HIND LEGS.
  -- MAGNUS OLESON, LAKE WOBEGON PATRIARCH, C.1875
 Job cpu time:       0 days  0 hours 11 minutes 37.4 seconds.
 Elapsed time:       0 days  0 hours  1 minutes 56.2 seconds.
 File lengths (MBytes):  RWF=     67 Int=      0 D2E=      0 Chk=     10 Scr=      1
 Normal termination of Gaussian 16 at Thu May 30 09:25:37 2024.
