 Entering Gaussian System, Link 0=g16
 Input=1_pleiokomenine_1a_c_26.gjf
 Output=1_pleiokomenine_1a_c_26.log
 Initial command:
 /opt/gaussian/g16/l1.exe "/data/abenidd/Elvis/pleiokomenine_C/NMR_HF/1a/1_pleiokomenine_1a_c_26/Gau-25821.inp" -scrdir="/data/abenidd/Elvis/pleiokomenine_C/NMR_HF/1a/1_pleiokomenine_1a_c_26/"
 Entering Link 1 = /opt/gaussian/g16/l1.exe PID=     25823.
  
 Copyright (c) 1988-2017, Gaussian, Inc.  All Rights Reserved.
  
 This is part of the Gaussian(R) 16 program.  It is based on
 the Gaussian(R) 09 system (copyright 2009, Gaussian, Inc.),
 the Gaussian(R) 03 system (copyright 2003, Gaussian, Inc.),
 the Gaussian(R) 98 system (copyright 1998, Gaussian, Inc.),
 the Gaussian(R) 94 system (copyright 1995, Gaussian, Inc.),
 the Gaussian 92(TM) system (copyright 1992, Gaussian, Inc.),
 the Gaussian 90(TM) system (copyright 1990, Gaussian, Inc.),
 the Gaussian 88(TM) system (copyright 1988, Gaussian, Inc.),
 the Gaussian 86(TM) system (copyright 1986, Carnegie Mellon
 University), and the Gaussian 82(TM) system (copyright 1983,
 Carnegie Mellon University). Gaussian is a federally registered
 trademark of Gaussian, Inc.
  
 This software contains proprietary and confidential information,
 including trade secrets, belonging to Gaussian, Inc.
  
 This software is provided under written license and may be
 used, copied, transmitted, or stored only in accord with that
 written license.
  
 The following legend is applicable only to US Government
 contracts under FAR:
  
                    RESTRICTED RIGHTS LEGEND
  
 Use, reproduction and disclosure by the US Government is
 subject to restrictions as set forth in subparagraphs (a)
 and (c) of the Commercial Computer Software - Restricted
 Rights clause in FAR 52.227-19.
  
 Gaussian, Inc.
 340 Quinnipiac St., Bldg. 40, Wallingford CT 06492
  
  
 ---------------------------------------------------------------
 Warning -- This program may not be used in any manner that
 competes with the business of Gaussian, Inc. or will provide
 assistance to any competitor of Gaussian, Inc.  The licensee
 of this program is prohibited from giving any competitor of
 Gaussian, Inc. access to this program.  By using this program,
 the user acknowledges that Gaussian, Inc. is engaged in the
 business of creating and licensing software in the field of
 computational chemistry and represents and warrants to the
 licensee that it is not a competitor of Gaussian, Inc. and that
 it will not use this program in any manner prohibited above.
 ---------------------------------------------------------------
  

 Cite this work as:
 Gaussian 16, Revision B.01,
 M. J. Frisch, G. W. Trucks, H. B. Schlegel, G. E. Scuseria, 
 M. A. Robb, J. R. Cheeseman, G. Scalmani, V. Barone, 
 G. A. Petersson, H. Nakatsuji, X. Li, M. Caricato, A. V. Marenich, 
 J. Bloino, B. G. Janesko, R. Gomperts, B. Mennucci, H. P. Hratchian, 
 J. V. Ortiz, A. F. Izmaylov, J. L. Sonnenberg, D. Williams-Young, 
 F. Ding, F. Lipparini, F. Egidi, J. Goings, B. Peng, A. Petrone, 
 T. Henderson, D. Ranasinghe, V. G. Zakrzewski, J. Gao, N. Rega, 
 G. Zheng, W. Liang, M. Hada, M. Ehara, K. Toyota, R. Fukuda, 
 J. Hasegawa, M. Ishida, T. Nakajima, Y. Honda, O. Kitao, H. Nakai, 
 T. Vreven, K. Throssell, J. A. Montgomery, Jr., J. E. Peralta, 
 F. Ogliaro, M. J. Bearpark, J. J. Heyd, E. N. Brothers, K. N. Kudin, 
 V. N. Staroverov, T. A. Keith, R. Kobayashi, J. Normand, 
 K. Raghavachari, A. P. Rendell, J. C. Burant, S. S. Iyengar, 
 J. Tomasi, M. Cossi, J. M. Millam, M. Klene, C. Adamo, R. Cammi, 
 J. W. Ochterski, R. L. Martin, K. Morokuma, O. Farkas, 
 J. B. Foresman, and D. J. Fox, Gaussian, Inc., Wallingford CT, 2016.
 
 ******************************************
 Gaussian 16:  ES64L-G16RevB.01 20-Dec-2017
                30-May-2024 
 ******************************************
 %nprocshared=8
 Will use up to    8 processors via shared memory.
 ----------------------------------------------
 # nmr=giao hf/sto-3g pop=nbo geom=connectivity
 ----------------------------------------------
 1/38=1,57=2,172=1/1;
 2/12=2,17=6,18=5,40=1/2;
 3/6=3,11=9,25=1,30=1/1,2,3,8;
 4//1;
 5/5=2,38=5/2;
 8/6=1,10=90,11=11/1;
 10/13=100,45=16/2;
 6/7=2,8=2,9=2,10=2,28=1,40=1,64=1/1,7;
 99/9=1/99;
 ------------------
 pleiokomenine_C_1a
 ------------------
 Symbolic Z-matrix:
 Charge =  0 Multiplicity = 1
 C                     0.        0.        0. 
 C                     1.4009    0.        0. 
 C                     2.0934    1.2297    0. 
 C                     1.4089    2.4516   -0.02 
 C                     0.0255    2.4442   -0.0479 
 C                    -0.6635    1.2186   -0.0198 
 N                    -0.8559    3.5572   -0.1083 
 C                    -2.1436    1.4982    0.0632 
 C                    -2.1185    2.9383   -0.5848 
 C                    -3.1478    0.6203   -0.6984 
 C                    -2.0595    2.7883   -2.1678 
 C                    -3.3016    2.067    -2.7056 
 C                    -4.1245    1.532    -1.5176 
 N                    -3.7671   -0.2179    0.3308 
 C                    -4.991    -0.8936   -0.074 
 C                    -5.9928   -0.0238   -0.8325 
 C                    -5.3263    0.706    -1.9985 
 C                    -2.5329    1.3321    1.5524 
 C                    -3.8416    0.5531    1.5623 
 C                    -4.6052    2.8035   -0.7384 
 C                    -3.4195    3.7186   -0.3267 
 C                    -3.6042    4.3109    1.0594 
 O                    -4.402     3.9071    1.8966 
 O                    -2.816     5.4102    1.2227 
 C                    -2.9005    6.004     2.5178 
 C                    -0.3327    4.7726   -0.7127 
 C                     2.1626   -1.3047    0.0554 
 C                     2.3897   -1.8053    1.464 
 C                     3.4525   -1.3006    2.2245 
 C                     1.5113   -2.7452    2.0406 
 C                     1.6995   -3.2083    3.3489 
 C                     2.766    -2.7227    4.0856 
 C                     3.6086   -1.745     3.5291 
 N                     3.1649   -3.0957    5.398 
 C                     4.5897   -1.3039    4.5854 
 C                     4.5653   -2.615     5.4632 
 C                     6.0303   -0.9831    4.1972 
 C                     5.5329   -3.6849    4.7966 
 C                     6.985    -3.1793    4.7811 
 C                     7.0084   -1.6851    5.1831 
 N                     6.1598    0.5418    4.0865 
 C                     7.107     1.1233    5.1073 
 C                     8.4609    0.4282    5.142 
 C                     8.4107   -1.0955    5.0194 
 C                     4.0787    0.0179    5.1743 
 C                     4.7585    1.0691    4.3159 
 C                     6.5261   -1.6621    6.6767 
 C                     5.1642   -2.3965    6.865 
 C                     4.2737   -1.729     7.9028 
 O                     4.4571   -0.6096    8.3651 
 O                     3.2951   -2.5772    8.3216 
 C                     2.3981   -2.014     9.279 
 C                     2.8103   -4.4441    5.8195 
 O                     6.5871    0.8937    2.8303 
 H                    -0.5614   -0.9285    0.0469 
 H                     3.1819    1.2405    0.0262 
 H                     1.9704    3.3785   -0.0115 
 H                    -2.6282   -0.0533   -1.3934 
 H                    -1.9872    3.7735   -2.6463 
 H                    -1.1641    2.243    -2.4913 
 H                    -3.9009    2.7562   -3.3139 
 H                    -2.9942    1.2544   -3.3755 
 H                    -4.7063   -1.7303   -0.7252 
 H                    -5.4797   -1.354     0.7933 
 H                    -6.8003   -0.6568   -1.2188 
 H                    -6.4622    0.6922   -0.1491 
 H                    -4.997    -0.0359   -2.7376 
 H                    -6.0609    1.3449   -2.5031 
 H                    -1.7916    0.7235    2.0907 
 H                    -2.5893    2.2656    2.111 
 H                    -3.8964   -0.1017    2.4387 
 H                    -4.7042    1.2202    1.601 
 H                    -5.2715    3.3893   -1.388 
 H                    -5.2305    2.5338    0.1128 
 H                    -3.4555    4.5915   -0.9967 
 H                    -2.6294    5.28      3.2926 
 H                    -2.1893    6.8337    2.5568 
 H                    -3.9058    6.4005    2.6906 
 H                     0.1229    4.5828   -1.6911 
 H                     0.4171    5.2321   -0.0598 
 H                    -1.1288    5.5103   -0.8522 
 H                     1.6286   -2.0651   -0.5299 
 H                     3.13     -1.1927   -0.4523 
 H                     4.1292   -0.5607    1.8035 
 H                     0.6671   -3.122     1.4668 
 H                     1.0095   -3.9343    3.7631 
 H                     6.2397   -1.3369    3.1771 
 H                     5.2267   -3.9227    3.7702 
 H                     5.4944   -4.6377    5.3398 
 H                     7.596    -3.7741    5.4721 
 H                     7.414    -3.3323    3.783 
 H                     7.2287    2.1808    4.8412 
 H                     6.6067    1.0935    6.0769 
 H                     9.0909    0.8201    4.3335 
 H                     8.9697    0.704     6.0736 
 H                     8.7969   -1.3631    4.0262 
 H                     9.1089   -1.546     5.7357 
 H                     2.9894    0.132     5.1635 
 H                     4.412     0.1808    6.1946 
 H                     4.8199    2.053     4.7906 
 H                     4.2863    1.1777    3.3349 
 H                     6.4869   -0.6463    7.0686 
 H                     7.2734   -2.17      7.3028 
 H                     5.4001   -3.3742    7.3134 
 H                     2.9286   -1.7822    10.2077 
 H                     1.6256   -2.7566    9.4967 
 H                     1.9137   -1.1198    8.8741 
 H                     3.3024   -4.6987    6.7632 
 H                     1.7312   -4.5196    5.991 
 H                     3.1025   -5.1969    5.0784 
 
 Stoichiometry    C45H56N4O5
 Framework group  C1[X(C45H56N4O5)]
 Deg. of freedom   324
 Full point group                 C1      NOp   1
 Largest Abelian subgroup         C1      NOp   1
 Largest concise Abelian subgroup C1      NOp   1
                         Standard orientation:                         
 ---------------------------------------------------------------------
 Center     Atomic      Atomic             Coordinates (Angstroms)
 Number     Number       Type             X           Y           Z
 ---------------------------------------------------------------------
      1          6           0        2.222084    0.174116   -1.738328
      2          6           0        1.137191   -0.583594   -2.198112
      3          6           0        1.026086   -1.937328   -1.814995
      4          6           0        1.989265   -2.545485   -0.999881
      5          6           0        3.072830   -1.798907   -0.571936
      6          6           0        3.167754   -0.442718   -0.931584
      7          7           0        4.172245   -2.224798    0.221277
      8          6           0        4.366682    0.157678   -0.240313
      9          6           0        5.188503   -1.178174   -0.054489
     10          6           0        5.244328    1.193533   -0.958576
     11          6           0        5.929656   -1.519526   -1.420520
     12          6           0        6.927110   -0.419059   -1.803109
     13          6           0        6.749973    0.773897   -0.843832
     14          7           0        4.888818    2.474774   -0.344248
     15          6           0        5.817478    3.565120   -0.603287
     16          6           0        7.295913    3.208868   -0.452320
     17          6           0        7.649869    1.951351   -1.245890
     18          6           0        3.821723    0.903970    1.001834
     19          6           0        4.560620    2.234791    1.052633
     20          6           0        7.149040    0.232540    0.571306
     21          6           0        6.329083   -1.025903    0.967262
     22          6           0        5.942528   -1.022102    2.435855
     23          8           0        5.977179   -0.042235    3.170092
     24          8           0        5.625703   -2.279520    2.854075
     25          6           0        5.210283   -2.355763    4.217393
     26          6           0        4.507531   -3.639325    0.167123
     27          6           0        0.066841    0.058331   -3.051214
     28          6           0       -1.028428    0.715744   -2.242189
     29          6           0       -2.079912   -0.054934   -1.729292
     30          6           0       -0.978651    2.095484   -1.957045
     31          6           0       -1.977688    2.716903   -1.197247
     32          6           0       -3.026031    1.952984   -0.714172
     33          6           0       -3.045663    0.567954   -0.952649
     34          7           0       -4.159258    2.389807    0.024492
     35          6           0       -4.212588   -0.027752   -0.206782
     36          6           0       -5.112101    1.267263   -0.144118
     37          6           0       -5.011628   -1.167554   -0.832342
     38          6           0       -5.878188    1.415245   -1.528497
     39          6           0       -6.819702    0.223047   -1.766571
     40          6           0       -6.534173   -0.870489   -0.709482
     41          7           0       -4.526011   -2.481828   -0.206878
     42          6           0       -5.599329   -3.180612    0.591277
     43          6           0       -6.906549   -3.350010   -0.170229
     44          6           0       -7.329556   -2.142791   -1.008620
     45          6           0       -3.671839   -0.644330    1.090331
     46          6           0       -3.380028   -2.081625    0.699142
     47          6           0       -6.944057   -0.223280    0.660590
     48          6           0       -6.243060    1.149136    0.894363
     49          6           0       -5.872487    1.380442    2.352014
     50          8           0       -5.872406    0.515147    3.219008
     51          8           0       -5.629799    2.698606    2.588743
     52          6           0       -5.247657    2.994696    3.932140
     53          6           0       -4.574194    3.769494   -0.189700
     54          8           0       -4.069686   -3.333493   -1.182014
     55          1           0        2.310957    1.229810   -1.977271
     56          1           0        0.172976   -2.527570   -2.145830
     57          1           0        1.870410   -3.584950   -0.717242
     58          1           0        4.977257    1.260570   -2.022026
     59          1           0        6.467831   -2.472760   -1.339770
     60          1           0        5.219088   -1.657262   -2.245061
     61          1           0        7.951815   -0.808512   -1.753181
     62          1           0        6.763012   -0.119767   -2.845738
     63          1           0        5.652719    3.900947   -1.635400
     64          1           0        5.577235    4.431027    0.025596
     65          1           0        7.907065    4.045006   -0.811961
     66          1           0        7.544915    3.077775    0.606377
     67          1           0        7.529921    2.163754   -2.316226
     68          1           0        8.707019    1.703227   -1.093183
     69          1           0        2.752006    1.133474    0.889052
     70          1           0        3.892212    0.342494    1.932648
     71          1           0        3.912316    3.023274    1.449924
     72          1           0        5.438794    2.180640    1.697982
     73          1           0        8.211761   -0.049529    0.558707
     74          1           0        7.089051    1.016119    1.326743
     75          1           0        7.013760   -1.883022    0.873910
     76          1           0        4.339497   -1.715976    4.391719
     77          1           0        4.925728   -3.390535    4.427164
     78          1           0        6.034356   -2.080929    4.883028
     79          1           0        4.607455   -3.999691   -0.862932
     80          1           0        3.739823   -4.233870    0.673838
     81          1           0        5.453031   -3.833941    0.682478
     82          1           0        0.527571    0.794070   -3.723788
     83          1           0       -0.374623   -0.691644   -3.721149
     84          1           0       -2.125080   -1.124168   -1.922461
     85          1           0       -0.151152    2.696667   -2.328156
     86          1           0       -1.913811    3.780420   -0.998277
     87          1           0       -4.755652   -1.275466   -1.896512
     88          1           0       -5.179471    1.492133   -2.370926
     89          1           0       -6.465615    2.341928   -1.552260
     90          1           0       -7.864644    0.553409   -1.707018
     91          1           0       -6.676017   -0.157573   -2.785462
     92          1           0       -5.186946   -4.160591    0.862402
     93          1           0       -5.735903   -2.623591    1.519925
     94          1           0       -6.830571   -4.221867   -0.832234
     95          1           0       -7.698798   -3.592421    0.548380
     96          1           0       -7.194946   -2.407681   -2.066411
     97          1           0       -8.405539   -1.967641   -0.885725
     98          1           0       -2.783083   -0.148937    1.495804
     99          1           0       -4.414208   -0.677887    1.881785
    100          1           0       -3.338888   -2.769679    1.548883
    101          1           0       -2.457038   -2.178482    0.119628
    102          1           0       -6.770111   -0.904756    1.492639
    103          1           0       -8.030121   -0.053418    0.666387
    104          1           0       -7.001373    1.921546    0.691992
    105          1           0       -6.070389    2.774798    4.619456
    106          1           0       -5.021519    4.062816    3.992026
    107          1           0       -4.348819    2.434968    4.209582
    108          1           0       -5.543314    3.961737    0.280834
    109          1           0       -3.855481    4.459734    0.264820
    110          1           0       -4.668121    4.010100   -1.254879
 ---------------------------------------------------------------------
 Rotational constants (GHZ):           0.1002927           0.0240267           0.0231344
 Standard basis: STO-3G (5D, 7F)
 There are   326 symmetry adapted cartesian basis functions of A   symmetry.
 There are   326 symmetry adapted basis functions of A   symmetry.
   326 basis functions,   978 primitive gaussians,   326 cartesian basis functions
   197 alpha electrons      197 beta electrons
       nuclear repulsion energy      7789.4846355928 Hartrees.
 NAtoms=  110 NActive=  110 NUniq=  110 SFac= 1.00D+00 NAtFMM=   60 NAOKFM=T Big=T
 Integral buffers will be    131072 words long.
 Raffenetti 1 integral format.
 Two-electron integral symmetry is turned on.
 One-electron integrals computed using PRISM.
 NBasis=   326 RedAO= T EigKep=  1.72D-01  NBF=   326
 NBsUse=   326 1.00D-06 EigRej= -1.00D+00 NBFU=   326
 ExpMin= 1.69D-01 ExpMax= 1.31D+02 ExpMxC= 1.31D+02 IAcc=3 IRadAn=         5 AccDes= 0.00D+00
 Harris functional with IExCor=  205 and IRadAn=       5 diagonalized for initial guess.
 HarFok:  IExCor=  205 AccDes= 0.00D+00 IRadAn=         5 IDoV= 1 UseB2=F ITyADJ=14
 ICtDFT=  3500011 ScaDFX=  1.000000  1.000000  1.000000  1.000000
 FoFCou: FMM=F IPFlag=           0 FMFlag=      100000 FMFlg1=        2001
         NFxFlg=           0 DoJE=T BraDBF=F KetDBF=T FulRan=T
         wScrn=  0.000000 ICntrl=       500 IOpCl=  0 I1Cent=   200000004 NGrid=           0
         NMat0=    1 NMatS0=      1 NMatT0=    0 NMatD0=    1 NMtDS0=    0 NMtDT0=    0
 Petite list used in FoFCou.
 Requested convergence on RMS density matrix=1.00D-08 within 128 cycles.
 Requested convergence on MAX density matrix=1.00D-06.
 Requested convergence on             energy=1.00D-06.
 No special actions if energy rises.
 Integral accuracy reduced to 1.0D-05 until final iterations.
 Initial convergence to 1.0D-05 achieved.  Increase integral accuracy.
 SCF Done:  E(RHF) =  -2300.22121974     A.U. after   15 cycles
            NFock= 15  Conv=0.99D-08     -V/T= 2.0092
 Range of M.O.s used for correlation:     1   326
 NBasis=   326 NAE=   197 NBE=   197 NFC=     0 NFV=     0
 NROrb=    326 NOA=   197 NOB=   197 NVA=   129 NVB=   129
          Differentiating once with respect to magnetic field using GIAOs.
          Electric field/nuclear overlap derivatives assumed to be zero.
 FoFCou: FMM=F IPFlag=           0 FMFlag=      100000 FMFlg1=        2001
         NFxFlg=           0 DoJE=F BraDBF=F KetDBF=T FulRan=T
         wScrn=  0.000000 ICntrl=      6100 IOpCl=  0 I1Cent=           7 NGrid=         110
         NMat0=    1 NMatS0=      1 NMatT0=    0 NMatD0=    1 NMtDS0=    0 NMtDT0=    0
 Symmetry not used in FoFCou.
 FoFJK:  IHMeth= 1 ICntrl=    6127 DoSepK=F KAlg= 0 I1Cent=           0 FoldK=F
 IRaf=         1 NMat=       1 IRICut=       1 DoRegI=T DoRafI=F ISym2E= 0 IDoP0=0 IntGTp=1.
          There are     3 degrees of freedom in the 1st order CPHF.  IDoFFX=0 NUNeed=     3.
      3 vectors produced by pass  0 Test12= 8.47D-13 3.33D-08 XBig12= 2.45D+02 2.51D+00.
 AX will form     3 AO Fock derivatives at one time.
      3 vectors produced by pass  1 Test12= 8.47D-13 3.33D-08 XBig12= 8.05D-01 3.29D-01.
      3 vectors produced by pass  2 Test12= 8.47D-13 3.33D-08 XBig12= 2.32D-02 4.25D-02.
      3 vectors produced by pass  3 Test12= 8.47D-13 3.33D-08 XBig12= 6.68D-04 9.75D-03.
      3 vectors produced by pass  4 Test12= 8.47D-13 3.33D-08 XBig12= 2.71D-05 1.32D-03.
      3 vectors produced by pass  5 Test12= 8.47D-13 3.33D-08 XBig12= 5.41D-07 1.14D-04.
      3 vectors produced by pass  6 Test12= 8.47D-13 3.33D-08 XBig12= 2.19D-08 2.92D-05.
      3 vectors produced by pass  7 Test12= 8.47D-13 3.33D-08 XBig12= 5.66D-10 4.11D-06.
      3 vectors produced by pass  8 Test12= 8.47D-13 3.33D-08 XBig12= 9.16D-12 5.66D-07.
      2 vectors produced by pass  9 Test12= 8.47D-13 3.33D-08 XBig12= 1.54D-13 6.55D-08.
 InvSVY:  IOpt=1 It=  1 EMax= 3.55D-15
 Solved reduced A of dimension    29 with     3 vectors.
 Calculating GIAO nuclear magnetic shielding tensors.
 SCF GIAO Magnetic shielding tensor (ppm):
      1  C    Isotropic =   124.3128   Anisotropy =   148.5308
   XX=   146.6197   YX=   -20.3182   ZX=   -47.2729
   XY=   -20.4036   YY=    41.1418   ZY=    41.8797
   XZ=   -40.4414   YZ=    31.0259   ZZ=   185.1770
   Eigenvalues:    31.5272   118.0780   223.3333
      2  C    Isotropic =   120.4872   Anisotropy =   157.0241
   XX=   103.4101   YX=    -1.3911   ZX=   -81.6071
   XY=     1.5528   YY=    92.9711   ZY=    44.1513
   XZ=   -72.7859   YZ=    32.7250   ZZ=   165.0803
   Eigenvalues:    41.0055    95.2862   225.1699
      3  C    Isotropic =   118.8869   Anisotropy =   154.3674
   XX=    86.3159   YX=   -48.7339   ZX=   -71.9422
   XY=   -49.0842   YY=    92.3967   ZY=    13.6900
   XZ=   -60.4442   YZ=    10.2461   ZZ=   177.9481
   Eigenvalues:    27.4412   107.4210   221.7985
      4  C    Isotropic =   133.5480   Anisotropy =   143.5353
   XX=   151.4026   YX=   -20.7123   ZX=   -44.4761
   XY=   -29.0767   YY=    63.8361   ZY=    38.0750
   XZ=   -44.5697   YZ=    40.9891   ZZ=   185.4053
   Eigenvalues:    50.6144   120.7914   229.2382
      5  C    Isotropic =   108.9232   Anisotropy =   127.1686
   XX=   102.5269   YX=     1.2115   ZX=   -57.4360
   XY=     5.6683   YY=    84.3207   ZY=    37.0885
   XZ=   -71.3688   YZ=    27.9578   ZZ=   139.9219
   Eigenvalues:    41.4299    91.6373   193.7023
      6  C    Isotropic =   117.5809   Anisotropy =   139.8765
   XX=   107.0223   YX=   -37.0384   ZX=   -60.0991
   XY=   -39.4063   YY=    86.5281   ZY=    15.9370
   XZ=   -59.2840   YZ=    27.4858   ZZ=   159.1924
   Eigenvalues:    51.5327    90.3782   210.8319
      7  N    Isotropic =   274.3890   Anisotropy =    83.3285
   XX=   321.4285   YX=   -17.7677   ZX=    19.5130
   XY=    -1.0547   YY=   245.5720   ZY=    -2.0814
   XZ=    25.3750   YZ=   -14.0210   ZZ=   256.1666
   Eigenvalues:   241.1198   252.1059   329.9414
      8  C    Isotropic =   195.8497   Anisotropy =    12.8537
   XX=   188.2115   YX=     1.2888   ZX=    -2.9338
   XY=     2.9625   YY=   203.5094   ZY=    -5.9091
   XZ=     0.5473   YZ=     1.5907   ZZ=   195.8283
   Eigenvalues:   187.8183   195.3120   204.4189
      9  C    Isotropic =   181.1286   Anisotropy =    44.8577
   XX=   187.2008   YX=    17.0940   ZX=    12.2651
   XY=    15.8636   YY=   197.3371   ZY=   -13.1630
   XZ=    -4.9846   YZ=   -13.6783   ZZ=   158.8479
   Eigenvalues:   152.3129   180.0391   211.0337
     10  C    Isotropic =   190.2362   Anisotropy =    29.2634
   XX=   184.7195   YX=     0.5212   ZX=    -7.4650
   XY=     2.7935   YY=   205.2712   ZY=    13.5243
   XZ=    -5.1630   YZ=     9.1960   ZZ=   180.7180
   Eigenvalues:   172.7513   188.2122   209.7452
     11  C    Isotropic =   213.7649   Anisotropy =    19.5399
   XX=   211.9835   YX=     1.4827   ZX=   -10.9666
   XY=     0.1040   YY=   209.7511   ZY=     0.4716
   XZ=    -8.7838   YZ=     7.2124   ZZ=   219.5602
   Eigenvalues:   203.7766   210.7267   226.7915
     12  C    Isotropic =   212.8487   Anisotropy =    20.9259
   XX=   204.9883   YX=     1.9964   ZX=    -1.6693
   XY=     0.7814   YY=   221.0233   ZY=     9.9128
   XZ=    -2.8036   YZ=     8.2412   ZZ=   212.5345
   Eigenvalues:   203.0961   208.6507   226.7993
     13  C    Isotropic =   213.6588   Anisotropy =     8.7687
   XX=   214.3688   YX=     3.5131   ZX=    -0.9110
   XY=     2.6816   YY=   210.0592   ZY=    -3.9837
   XZ=    -3.6335   YZ=    -0.9652   ZZ=   216.5484
   Eigenvalues:   208.2549   213.2168   219.5046
     14  N    Isotropic =   302.9234   Anisotropy =    54.0630
   XX=   257.9472   YX=     5.7572   ZX=   -26.2767
   XY=    21.0474   YY=   333.4083   ZY=    12.8212
   XZ=   -37.6921   YZ=     8.6797   ZZ=   317.4148
   Eigenvalues:   241.0273   328.7775   338.9654
     15  C    Isotropic =   205.2876   Anisotropy =    35.0447
   XX=   209.5031   YX=    12.6539   ZX=    -5.0544
   XY=    12.6209   YY=   217.0905   ZY=   -10.6324
   XZ=    -2.5770   YZ=    -6.6329   ZZ=   189.2693
   Eigenvalues:   186.8059   200.4062   228.6507
     16  C    Isotropic =   224.2040   Anisotropy =     8.7195
   XX=   224.7302   YX=    -2.5833   ZX=     0.1768
   XY=    -0.9822   YY=   229.2020   ZY=     3.1188
   XZ=    -2.6866   YZ=    -0.8918   ZZ=   218.6800
   Eigenvalues:   218.3760   224.2191   230.0170
     17  C    Isotropic =   215.2681   Anisotropy =    20.2364
   XX=   211.8688   YX=     9.9823   ZX=    -4.2070
   XY=     5.5577   YY=   224.3574   ZY=    -2.9876
   XZ=    -1.1234   YZ=    -2.4389   ZZ=   209.5780
   Eigenvalues:   207.2546   209.7906   228.7590
     18  C    Isotropic =   210.7037   Anisotropy =    36.3778
   XX=   205.1191   YX=     5.0752   ZX=    -9.4788
   XY=     3.9766   YY=   215.4605   ZY=    17.5830
   XZ=    -5.3428   YZ=    24.9618   ZZ=   211.5316
   Eigenvalues:   187.8982   209.2574   234.9556
     19  C    Isotropic =   199.8283   Anisotropy =    41.7930
   XX=   183.7719   YX=    11.1874   ZX=   -16.0669
   XY=     9.9971   YY=   198.1982   ZY=    -7.2788
   XZ=   -19.6919   YZ=    -1.7639   ZZ=   217.5147
   Eigenvalues:   173.3781   198.4165   227.6903
     20  C    Isotropic =   212.2652   Anisotropy =    21.1182
   XX=   210.4505   YX=     6.0974   ZX=     0.8935
   XY=     3.9855   YY=   207.6653   ZY=   -11.7623
   XZ=     1.3814   YZ=   -11.7197   ZZ=   218.6799
   Eigenvalues:   198.2471   212.2046   226.3440
     21  C    Isotropic =   209.0987   Anisotropy =     9.7529
   XX=   212.5384   YX=     2.2323   ZX=     2.8504
   XY=     1.8031   YY=   199.3863   ZY=     2.5998
   XZ=    -1.2913   YZ=    -4.9834   ZZ=   215.3713
   Eigenvalues:   198.9814   212.7140   215.6006
     22  C    Isotropic =    96.4338   Anisotropy =    98.9643
   XX=   142.4435   YX=   -25.7668   ZX=    44.9601
   XY=   -32.6637   YY=    93.6383   ZY=    94.4104
   XZ=    41.2923   YZ=    72.6583   ZZ=    53.2195
   Eigenvalues:   -28.3303   155.2216   162.4100
     23  O    Isotropic =  -134.2295   Anisotropy =   887.7403
   XX=   394.8639   YX=  -153.4361   ZX=   141.3470
   XY=  -147.6419   YY=  -465.7619   ZY=  -145.2121
   XZ=   149.5843   YZ=  -164.8648   ZZ=  -331.7906
   Eigenvalues:  -570.1675  -290.1184   457.5973
     24  O    Isotropic =   284.0537   Anisotropy =   139.1496
   XX=   350.9832   YX=    -3.0788   ZX=    16.8509
   XY=    33.7487   YY=   358.9311   ZY=  -131.5142
   XZ=    64.3410   YZ=     5.8456   ZZ=   142.2468
   Eigenvalues:   117.3591   357.9819   376.8201
     25  C    Isotropic =   197.4305   Anisotropy =    57.1050
   XX=   183.3534   YX=     1.1661   ZX=   -14.9653
   XY=     1.8847   YY=   178.7419   ZY=    -7.7408
   XZ=   -14.3913   YZ=    -7.7111   ZZ=   230.1961
   Eigenvalues:   177.4037   179.3872   235.5004
     26  C    Isotropic =   209.9023   Anisotropy =    41.1586
   XX=   195.3456   YX=    -8.2265   ZX=    -0.2559
   XY=    -8.9766   YY=   235.5402   ZY=    -1.6111
   XZ=     2.1827   YZ=    -0.4591   ZZ=   198.8213
   Eigenvalues:   193.4802   198.8855   237.3414
     27  C    Isotropic =   206.6428   Anisotropy =    15.8605
   XX=   213.7971   YX=    -6.9976   ZX=    -0.2749
   XY=    -7.5121   YY=   201.8227   ZY=    -0.6019
   XZ=    -0.0268   YZ=    -0.2803   ZZ=   204.3087
   Eigenvalues:   198.3674   204.3446   217.2165
     28  C    Isotropic =   120.0560   Anisotropy =   157.8914
   XX=   102.6663   YX=     3.5988   ZX=    82.6139
   XY=     4.9382   YY=    88.3186   ZY=   -35.1328
   XZ=    74.3785   YZ=   -27.1435   ZZ=   169.1831
   Eigenvalues:    40.9467    93.9044   225.3169
     29  C    Isotropic =   123.7639   Anisotropy =   150.1771
   XX=   148.1115   YX=   -13.9640   ZX=    49.8700
   XY=   -12.8658   YY=    36.6383   ZY=   -34.5709
   XZ=    45.5972   YZ=   -21.8432   ZZ=   186.5419
   Eigenvalues:    31.2932   116.1166   223.8820
     30  C    Isotropic =   118.6608   Anisotropy =   153.7566
   XX=    89.0044   YX=   -43.7196   ZX=    74.8336
   XY=   -45.1873   YY=    88.0643   ZY=    -3.3757
   XZ=    64.2889   YZ=    -1.4516   ZZ=   178.9136
   Eigenvalues:    26.6243   108.1929   221.1652
     31  C    Isotropic =   133.6596   Anisotropy =   143.0508
   XX=   152.6223   YX=   -11.7157   ZX=    46.8134
   XY=   -20.1104   YY=    57.0194   ZY=   -26.0103
   XZ=    48.3786   YZ=   -27.8190   ZZ=   191.3372
   Eigenvalues:    51.3086   120.6434   229.0268
     32  C    Isotropic =   108.8861   Anisotropy =   126.9739
   XX=   100.8614   YX=     8.2806   ZX=    57.3998
   XY=    13.0864   YY=    80.0958   ZY=   -28.0960
   XZ=    72.8405   YZ=   -17.4400   ZZ=   145.7012
   Eigenvalues:    41.5946    91.5283   193.5354
     33  C    Isotropic =   120.9953   Anisotropy =   134.9090
   XX=   110.2800   YX=   -29.5508   ZX=    66.3434
   XY=   -33.7614   YY=    87.4563   ZY=    -1.3994
   XZ=    58.7432   YZ=   -14.9215   ZZ=   165.2497
   Eigenvalues:    53.3845    98.6668   210.9347
     34  N    Isotropic =   274.3651   Anisotropy =    82.6601
   XX=   321.9665   YX=   -16.7101   ZX=   -16.8736
   XY=     0.3014   YY=   247.2943   ZY=     2.2714
   XZ=   -26.4212   YZ=    12.5756   ZZ=   253.8346
   Eigenvalues:   241.9561   251.6674   329.4719
     35  C    Isotropic =   197.5323   Anisotropy =    14.3982
   XX=   194.9036   YX=    -2.9654   ZX=     1.3540
   XY=    -4.5108   YY=   205.7501   ZY=     7.5997
   XZ=     0.8661   YZ=    -3.1293   ZZ=   191.9433
   Eigenvalues:   190.7483   194.7176   207.1311
     36  C    Isotropic =   180.7344   Anisotropy =    44.8722
   XX=   184.9826   YX=    14.1485   ZX=   -15.3140
   XY=    14.5872   YY=   202.1188   ZY=     7.4920
   XZ=     2.8842   YZ=     9.7314   ZZ=   155.1018
   Eigenvalues:   151.1403   180.4138   210.6492
     37  C    Isotropic =   175.7681   Anisotropy =    56.5892
   XX=   152.7181   YX=   -13.7105   ZX=     7.4927
   XY=   -15.1254   YY=   200.5738   ZY=   -17.5677
   XZ=    10.3877   YZ=   -16.2740   ZZ=   174.0126
   Eigenvalues:   147.8758   165.9344   213.4943
     38  C    Isotropic =   213.5665   Anisotropy =    19.2355
   XX=   211.4286   YX=     2.8440   ZX=    10.9722
   XY=     0.7940   YY=   209.7388   ZY=     1.3534
   XZ=     9.2170   YZ=    -5.5701   ZZ=   219.5320
   Eigenvalues:   203.4499   210.8594   226.3901
     39  C    Isotropic =   211.8395   Anisotropy =    22.3723
   XX=   202.7685   YX=     0.7765   ZX=     3.4190
   XY=    -1.0130   YY=   219.1634   ZY=   -10.5992
   XZ=     4.6859   YZ=    -8.8289   ZZ=   213.5867
   Eigenvalues:   200.7151   208.0492   226.7544
     40  C    Isotropic =   211.0333   Anisotropy =     9.9021
   XX=   213.7377   YX=     4.7872   ZX=     2.5165
   XY=     3.4757   YY=   210.4993   ZY=     1.6662
   XZ=     2.6827   YZ=     1.6291   ZZ=   208.8629
   Eigenvalues:   207.6218   207.8433   217.6347
     41  N    Isotropic =   226.8652   Anisotropy =    56.1119
   XX=   205.3473   YX=   -21.8412   ZX=    13.8817
   XY=   -22.3047   YY=   242.0424   ZY=    22.9034
   XZ=    10.8472   YZ=    26.2372   ZZ=   233.2057
   Eigenvalues:   184.4745   231.8479   264.2731
     42  C    Isotropic =   196.7143   Anisotropy =    47.5603
   XX=   210.0929   YX=    12.3764   ZX=   -15.6620
   XY=    16.0067   YY=   189.3479   ZY=   -17.2754
   XZ=   -11.7260   YZ=   -17.0870   ZZ=   190.7020
   Eigenvalues:   172.8093   188.9124   228.4211
     43  C    Isotropic =   221.7482   Anisotropy =    10.7448
   XX=   223.0060   YX=     4.6688   ZX=     7.5350
   XY=     2.8413   YY=   225.5077   ZY=    -6.2152
   XZ=     7.8588   YZ=    -6.5281   ZZ=   216.7307
   Eigenvalues:   208.3735   227.9596   228.9113
     44  C    Isotropic =   217.7631   Anisotropy =    21.5231
   XX=   213.0724   YX=     9.5865   ZX=     4.6897
   XY=     5.7325   YY=   228.7795   ZY=     2.2144
   XZ=     1.8062   YZ=    -0.3336   ZZ=   211.4374
   Eigenvalues:   207.8728   213.3046   232.1118
     45  C    Isotropic =   214.1304   Anisotropy =    28.0802
   XX=   203.3814   YX=    -9.9363   ZX=    14.3626
   XY=    -1.4882   YY=   222.0275   ZY=    -8.0455
   XZ=    17.6014   YZ=    -2.4872   ZZ=   216.9824
   Eigenvalues:   192.6884   216.8523   232.8506
     46  C    Isotropic =   187.0175   Anisotropy =    61.9142
   XX=   203.6264   YX=     3.7080   ZX=    30.0430
   XY=    14.4654   YY=   173.3857   ZY=    10.0031
   XZ=    26.4559   YZ=    18.7281   ZZ=   184.0403
   Eigenvalues:   159.7122   173.0466   228.2936
     47  C    Isotropic =   212.0690   Anisotropy =    23.2979
   XX=   207.1506   YX=     5.7690   ZX=    -3.2659
   XY=     4.5228   YY=   212.0292   ZY=    12.8943
   XZ=    -3.5779   YZ=    12.7263   ZZ=   217.0272
   Eigenvalues:   197.5390   211.0670   227.6009
     48  C    Isotropic =   208.3917   Anisotropy =    10.2716
   XX=   211.0184   YX=     2.8566   ZX=    -2.9130
   XY=     2.7270   YY=   199.5534   ZY=    -1.0123
   XZ=     0.4126   YZ=     6.5020   ZZ=   214.6034
   Eigenvalues:   198.3707   211.5650   215.2395
     49  C    Isotropic =    96.1601   Anisotropy =    98.2369
   XX=   146.0173   YX=   -28.3103   ZX=   -34.8746
   XY=   -33.1975   YY=    66.6340   ZY=   -98.4374
   XZ=   -32.3015   YZ=   -77.1396   ZZ=    75.8290
   Eigenvalues:   -28.5061   155.3350   161.6514
     50  O    Isotropic =  -131.5074   Anisotropy =   882.8574
   XX=   412.8476   YX=  -123.8833   ZX=  -124.0166
   XY=  -122.8251   YY=  -427.5979   ZY=   142.5596
   XZ=  -128.1586   YZ=   169.7815   ZZ=  -379.7718
   Eigenvalues:  -561.8254  -289.7610   457.0642
     51  O    Isotropic =   282.9814   Anisotropy =   138.2202
   XX=   351.1729   YX=    -7.2244   ZX=   -20.9289
   XY=    21.0007   YY=   372.0499   ZY=    95.8513
   XZ=   -64.8031   YZ=   -43.6635   ZZ=   125.7214
   Eigenvalues:   115.0288   358.7873   375.1282
     52  C    Isotropic =   197.2546   Anisotropy =    57.4690
   XX=   182.3214   YX=     3.2764   ZX=    13.2145
   XY=     3.8146   YY=   182.0914   ZY=    15.6120
   XZ=    12.5560   YZ=    15.6216   ZZ=   227.3510
   Eigenvalues:   177.1236   179.0730   235.5673
     53  C    Isotropic =   209.5281   Anisotropy =    41.6911
   XX=   195.9041   YX=   -10.5326   ZX=     0.9331
   XY=   -11.6031   YY=   234.1179   ZY=    -2.4850
   XZ=    -1.3932   YZ=    -3.8227   ZZ=   198.5623
   Eigenvalues:   192.7374   198.5247   237.3222
     54  O    Isotropic =    26.3665   Anisotropy =   457.0473
   XX=   -86.4602   YX=  -112.7466   ZX=  -109.8826
   XY=  -115.3223   YY=    62.8752   ZY=   182.8304
   XZ=  -112.7749   YZ=   190.4065   ZZ=   102.6844
   Eigenvalues:  -149.1610  -102.8042   331.0646
     55  H    Isotropic =    25.6444   Anisotropy =    15.5135
   XX=    33.2257   YX=     0.5370   ZX=     5.6821
   XY=     0.3540   YY=    22.2622   ZY=    -0.8573
   XZ=     6.9905   YZ=    -1.1883   ZZ=    21.4452
   Eigenvalues:    18.3649    22.5815    35.9867
     56  H    Isotropic =    25.3210   Anisotropy =     6.2539
   XX=    27.4751   YX=    -1.8458   ZX=     1.1765
   XY=    -0.9690   YY=    27.5521   ZY=    -1.2411
   XZ=     1.8867   YZ=    -1.9336   ZZ=    20.9358
   Eigenvalues:    20.3670    26.1056    29.4902
     57  H    Isotropic =    26.5049   Anisotropy =     9.0361
   XX=    30.7844   YX=     1.7020   ZX=     3.6466
   XY=     1.4931   YY=    26.8711   ZY=    -1.0483
   XZ=     4.4169   YZ=    -1.5718   ZZ=    21.8592
   Eigenvalues:    19.8430    27.1427    32.5290
     58  H    Isotropic =    31.4795   Anisotropy =     8.8641
   XX=    30.6339   YX=     0.8765   ZX=     3.6800
   XY=     0.1506   YY=    28.4837   ZY=    -0.2626
   XZ=     3.4585   YZ=    -2.8212   ZZ=    35.3209
   Eigenvalues:    27.3361    29.7134    37.3889
     59  H    Isotropic =    32.1754   Anisotropy =    13.3437
   XX=    31.1204   YX=    -3.9073   ZX=    -3.0676
   XY=    -3.6744   YY=    38.9500   ZY=     1.2984
   XZ=    -4.6181   YZ=     1.7368   ZZ=    26.4558
   Eigenvalues:    24.2705    31.1846    41.0712
     60  H    Isotropic =    32.8939   Anisotropy =     8.8592
   XX=    34.1146   YX=     3.0936   ZX=     3.1909
   XY=     1.8402   YY=    28.6110   ZY=     3.4326
   XZ=    -0.0686   YZ=     4.0139   ZZ=    35.9562
   Eigenvalues:    26.6501    33.2316    38.8001
     61  H    Isotropic =    32.3588   Anisotropy =    15.1946
   XX=    39.2227   YX=    -4.0150   ZX=    -4.5268
   XY=    -4.3185   YY=    30.6707   ZY=     1.9319
   XZ=    -4.5165   YZ=     1.8676   ZZ=    27.1831
   Eigenvalues:    25.6109    28.9771    42.4886
     62  H    Isotropic =    32.5620   Anisotropy =    13.5362
   XX=    27.9208   YX=     1.5597   ZX=    -1.9120
   XY=     1.0156   YY=    28.6740   ZY=    -0.4835
   XZ=    -2.9050   YZ=    -0.9620   ZZ=    41.0911
   Eigenvalues:    26.7825    29.3174    41.5861
     63  H    Isotropic =    31.7632   Anisotropy =    14.5604
   XX=    28.3051   YX=     0.0634   ZX=     1.2803
   XY=    -0.8742   YY=    33.2758   ZY=    -8.0297
   XZ=     2.2625   YZ=    -7.5523   ZZ=    33.7087
   Eigenvalues:    25.3770    28.4425    41.4702
     64  H    Isotropic =    31.7940   Anisotropy =    15.1229
   XX=    28.4754   YX=    -0.8802   ZX=    -2.0759
   XY=    -1.7780   YY=    40.4304   ZY=     4.0090
   XZ=    -2.0237   YZ=     4.4882   ZZ=    26.4762
   Eigenvalues:    24.5795    28.9265    41.8759
     65  H    Isotropic =    32.6356   Anisotropy =    18.0759
   XX=    33.5883   YX=     7.7598   ZX=    -2.4257
   XY=     7.9230   YY=    38.2500   ZY=    -2.0377
   XZ=    -2.6702   YZ=    -2.4003   ZZ=    26.0686
   Eigenvalues:    25.2809    27.9397    44.6863
     66  H    Isotropic =    32.5349   Anisotropy =    10.6527
   XX=    30.4445   YX=     2.7464   ZX=     4.3019
   XY=     2.4710   YY=    30.6071   ZY=     1.3951
   XZ=     4.5851   YZ=     1.6523   ZZ=    36.5532
   Eigenvalues:    27.2059    30.7621    39.6367
     67  H    Isotropic =    32.6220   Anisotropy =    13.3238
   XX=    28.1867   YX=     2.3297   ZX=    -3.7470
   XY=     2.1048   YY=    30.6491   ZY=    -3.1563
   XZ=    -3.8616   YZ=    -3.2064   ZZ=    39.0301
   Eigenvalues:    26.5532    29.8082    41.5045
     68  H    Isotropic =    32.4769   Anisotropy =    14.8064
   XX=    42.1731   YX=     0.4439   ZX=    -2.0019
   XY=     0.1001   YY=    29.7376   ZY=    -0.3213
   XZ=    -1.3521   YZ=    -0.4223   ZZ=    25.5200
   Eigenvalues:    25.3261    29.7568    42.3478
     69  H    Isotropic =    32.6760   Anisotropy =    14.3092
   XX=    41.9549   YX=    -2.9011   ZX=    -1.6802
   XY=    -0.5505   YY=    28.6172   ZY=     2.8463
   XZ=     1.1275   YZ=     4.6920   ZZ=    27.4559
   Eigenvalues:    24.1752    31.6373    42.2155
     70  H    Isotropic =    33.1180   Anisotropy =    10.0035
   XX=    29.8010   YX=    -2.3405   ZX=    -1.4305
   XY=    -0.8638   YY=    31.3608   ZY=    -3.8653
   XZ=    -0.5209   YZ=    -3.4476   ZZ=    38.1922
   Eigenvalues:    27.9259    31.6411    39.7870
     71  H    Isotropic =    31.9423   Anisotropy =    15.2900
   XX=    31.0372   YX=    -4.6213   ZX=    -4.3639
   XY=    -3.6264   YY=    34.8809   ZY=     5.0855
   XZ=    -4.8648   YZ=     6.8463   ZZ=    29.9089
   Eigenvalues:    25.1853    28.5060    42.1357
     72  H    Isotropic =    32.0035   Anisotropy =     9.0118
   XX=    31.1841   YX=     0.2922   ZX=     3.2741
   XY=     1.2804   YY=    29.4787   ZY=     1.7095
   XZ=     4.0379   YZ=     2.3306   ZZ=    35.3478
   Eigenvalues:    28.6690    29.3301    38.0114
     73  H    Isotropic =    32.2368   Anisotropy =    14.8801
   XX=    41.5253   YX=    -1.0044   ZX=     2.0962
   XY=    -1.6187   YY=    28.4718   ZY=    -2.4489
   XZ=     2.9528   YZ=    -2.3849   ZZ=    26.7132
   Eigenvalues:    24.9083    29.6452    42.1569
     74  H    Isotropic =    31.3921   Anisotropy =     9.4480
   XX=    27.2616   YX=     1.9394   ZX=     1.6574
   XY=     1.3628   YY=    32.7713   ZY=     3.0101
   XZ=     2.7837   YZ=     3.8554   ZZ=    34.1435
   Eigenvalues:    26.5243    29.9613    37.6908
     75  H    Isotropic =    31.2275   Anisotropy =    12.3075
   XX=    32.1503   YX=    -6.0145   ZX=     0.2873
   XY=    -4.6152   YY=    34.5923   ZY=    -2.9338
   XZ=     1.3554   YZ=    -2.7723   ZZ=    26.9399
   Eigenvalues:    25.7654    28.4846    39.4325
     76  H    Isotropic =    30.7471   Anisotropy =     7.7032
   XX=    32.2600   YX=    -2.5521   ZX=    -3.6451
   XY=    -3.3299   YY=    27.9375   ZY=     0.0152
   XZ=    -2.7765   YZ=    -0.5305   ZZ=    32.0439
   Eigenvalues:    25.9040    30.4548    35.8826
     77  H    Isotropic =    30.5968   Anisotropy =    11.6333
   XX=    26.5782   YX=     2.8275   ZX=    -1.0220
   XY=     2.5913   YY=    34.3509   ZY=    -4.3014
   XZ=    -0.7640   YZ=    -5.3028   ZZ=    30.8612
   Eigenvalues:    25.6041    27.8339    38.3523
     78  H    Isotropic =    30.6235   Anisotropy =    11.7729
   XX=    29.6461   YX=     0.5096   ZX=     4.9590
   XY=     1.2018   YY=    26.6450   ZY=    -0.3784
   XZ=     5.1394   YZ=    -1.0419   ZZ=    35.5795
   Eigenvalues:    25.6024    27.7960    38.4721
     79  H    Isotropic =    31.8815   Anisotropy =    11.5205
   XX=    27.9756   YX=    -0.9116   ZX=    -0.2389
   XY=    -0.5020   YY=    35.9798   ZY=     4.5634
   XZ=    -1.5001   YZ=     5.8433   ZZ=    31.6891
   Eigenvalues:    27.6743    28.4084    39.5618
     80  H    Isotropic =    30.7350   Anisotropy =    13.8921
   XX=    30.3348   YX=     4.9314   ZX=    -0.9100
   XY=     5.0380   YY=    35.2657   ZY=    -5.0043
   XZ=    -1.1785   YZ=    -4.6268   ZZ=    26.6046
   Eigenvalues:    24.1883    28.0204    39.9964
     81  H    Isotropic =    30.9276   Anisotropy =    10.6761
   XX=    31.4619   YX=    -2.6641   ZX=     5.0257
   XY=    -2.9988   YY=    34.0344   ZY=    -2.9006
   XZ=     4.5531   YZ=    -1.9939   ZZ=    27.2866
   Eigenvalues:    24.1210    30.6168    38.0451
     82  H    Isotropic =    29.9013   Anisotropy =    10.0007
   XX=    29.5608   YX=     2.5806   ZX=    -2.3052
   XY=     2.3015   YY=    29.5046   ZY=    -4.1354
   XZ=    -2.4889   YZ=    -5.4642   ZZ=    30.6385
   Eigenvalues:    25.2212    27.9143    36.5685
     83  H    Isotropic =    29.8239   Anisotropy =     9.6759
   XX=    29.0445   YX=     2.6632   ZX=     1.9168
   XY=     2.3969   YY=    29.5582   ZY=     3.9123
   XZ=     2.2212   YZ=     5.2352   ZZ=    30.8692
   Eigenvalues:    25.4678    27.7295    36.2746
     84  H    Isotropic =    25.2418   Anisotropy =    15.2697
   XX=    32.1625   YX=     0.7561   ZX=    -5.9533
   XY=     0.3575   YY=    22.0440   ZY=    -0.4155
   XZ=    -7.4548   YZ=     0.2629   ZZ=    21.5187
   Eigenvalues:    18.2730    22.0307    35.4216
     85  H    Isotropic =    25.4387   Anisotropy =     6.4499
   XX=    27.2880   YX=    -1.9671   ZX=    -1.6110
   XY=    -1.1958   YY=    28.0868   ZY=     0.5455
   XZ=    -2.1726   YZ=     1.3170   ZZ=    20.9412
   Eigenvalues:    20.3887    26.1887    29.7386
     86  H    Isotropic =    26.5138   Anisotropy =     8.7580
   XX=    30.3757   YX=     1.6073   ZX=    -3.9458
   XY=     1.2792   YY=    27.4571   ZY=     0.3913
   XZ=    -4.5399   YZ=     0.9448   ZZ=    21.7085
   Eigenvalues:    19.7982    27.3907    32.3524
     87  H    Isotropic =    30.5035   Anisotropy =     6.4657
   XX=    30.3948   YX=     0.0808   ZX=    -2.3378
   XY=    -0.5566   YY=    28.0351   ZY=    -0.1834
   XZ=    -2.4735   YZ=     3.3109   ZZ=    33.0807
   Eigenvalues:    27.4954    29.2012    34.8140
     88  H    Isotropic =    32.7731   Anisotropy =     8.7051
   XX=    33.6474   YX=     2.7274   ZX=    -3.2689
   XY=     1.7163   YY=    28.0882   ZY=    -2.9020
   XZ=     0.0711   YZ=    -3.1355   ZZ=    36.5838
   Eigenvalues:    26.7149    33.0280    38.5765
     89  H    Isotropic =    32.1161   Anisotropy =    13.5702
   XX=    31.5601   YX=    -4.0381   ZX=     3.5758
   XY=    -3.7803   YY=    38.0418   ZY=    -2.4701
   XZ=     5.0731   YZ=    -2.7438   ZZ=    26.7465
   Eigenvalues:    24.1981    30.9874    41.1629
     90  H    Isotropic =    32.1552   Anisotropy =    15.2618
   XX=    39.7591   YX=    -3.0389   ZX=     4.6127
   XY=    -3.5592   YY=    29.6170   ZY=    -1.8695
   XZ=     4.5860   YZ=    -1.7457   ZZ=    27.0895
   Eigenvalues:    25.4475    28.6883    42.3297
     91  H    Isotropic =    32.2792   Anisotropy =    13.6343
   XX=    27.6653   YX=     1.7608   ZX=     2.3007
   XY=     1.2065   YY=    28.7497   ZY=     1.4894
   XZ=     3.2963   YZ=     2.2258   ZZ=    40.4225
   Eigenvalues:    26.4902    28.9786    41.3687
     92  H    Isotropic =    30.8707   Anisotropy =    13.9608
   XX=    29.0724   YX=    -0.6125   ZX=     1.7108
   XY=    -1.5926   YY=    37.5625   ZY=    -4.8929
   XZ=     1.6761   YZ=    -6.5925   ZZ=    25.9770
   Eigenvalues:    23.3753    29.0588    40.1778
     93  H    Isotropic =    31.8304   Anisotropy =     6.8456
   XX=    29.3003   YX=     1.1965   ZX=    -2.5166
   XY=     1.8639   YY=    30.6992   ZY=    -0.3572
   XZ=    -2.1682   YZ=    -0.2959   ZZ=    35.4917
   Eigenvalues:    27.8582    31.2388    36.3941
     94  H    Isotropic =    31.2118   Anisotropy =    16.3122
   XX=    26.5585   YX=     2.2069   ZX=     2.4483
   XY=     1.8180   YY=    39.0731   ZY=     5.9634
   XZ=     1.9474   YZ=     5.7810   ZZ=    28.0037
   Eigenvalues:    24.5336    27.0152    42.0866
     95  H    Isotropic =    32.1987   Anisotropy =    16.2048
   XX=    35.8477   YX=     5.6275   ZX=    -4.7106
   XY=     5.3091   YY=    30.6245   ZY=    -4.3805
   XZ=    -5.7182   YZ=    -4.9009   ZZ=    30.1239
   Eigenvalues:    25.7266    27.8676    43.0019
     96  H    Isotropic =    31.9207   Anisotropy =    13.6480
   XX=    26.4441   YX=     2.6213   ZX=     3.1003
   XY=     2.1893   YY=    31.1392   ZY=     3.8968
   XZ=     3.1369   YZ=     4.1536   ZZ=    38.1787
   Eigenvalues:    25.2482    29.4944    41.0193
     97  H    Isotropic =    32.2850   Anisotropy =    15.0360
   XX=    42.0022   YX=     1.8345   ZX=     1.8998
   XY=     1.0944   YY=    29.7879   ZY=    -0.2535
   XZ=     1.2247   YZ=    -0.3262   ZZ=    25.0648
   Eigenvalues:    24.8847    29.6612    42.3090
     98  H    Isotropic =    33.2168   Anisotropy =    11.4799
   XX=    36.3158   YX=     2.1129   ZX=     6.4719
   XY=     3.3129   YY=    30.2020   ZY=     1.2984
   XZ=     3.8324   YZ=     0.8776   ZZ=    33.1327
   Eigenvalues:    28.6772    30.1032    40.8701
     99  H    Isotropic =    32.7412   Anisotropy =    10.5503
   XX=    31.3243   YX=    -4.2492   ZX=    -4.9004
   XY=    -1.0559   YY=    30.0946   ZY=     0.4042
   XZ=    -4.5934   YZ=    -0.1067   ZZ=    36.8046
   Eigenvalues:    26.9331    31.5157    39.7747
    100  H    Isotropic =    31.3415   Anisotropy =    12.3518
   XX=    30.7051   YX=    -2.6690   ZX=     4.3426
   XY=    -1.3221   YY=    31.8593   ZY=    -4.7031
   XZ=     3.4265   YZ=    -7.2053   ZZ=    31.4599
   Eigenvalues:    25.2210    29.2274    39.5760
    101  H    Isotropic =    30.5815   Anisotropy =    14.8989
   XX=    38.9643   YX=    -4.1577   ZX=    -4.0562
   XY=    -1.6651   YY=    28.1876   ZY=    -0.4754
   XZ=    -3.9932   YZ=    -2.3973   ZZ=    24.5927
   Eigenvalues:    22.6691    28.5613    40.5141
    102  H    Isotropic =    31.5435   Anisotropy =     9.2720
   XX=    26.7947   YX=     0.6546   ZX=    -1.6129
   XY=     0.3050   YY=    32.7416   ZY=    -2.8801
   XZ=    -2.4419   YZ=    -3.6315   ZZ=    35.0942
   Eigenvalues:    26.3125    30.5932    37.7248
    103  H    Isotropic =    32.0794   Anisotropy =    15.0159
   XX=    41.4072   YX=     0.1879   ZX=    -2.6905
   XY=    -0.6923   YY=    28.4899   ZY=     2.0120
   XZ=    -3.7098   YZ=     1.9925   ZZ=    26.3411
   Eigenvalues:    24.7152    29.4330    42.0900
    104  H    Isotropic =    31.2088   Anisotropy =    12.2657
   XX=    33.1349   YX=    -6.1067   ZX=     0.2931
   XY=    -5.0635   YY=    34.0201   ZY=     1.9738
   XZ=    -0.9757   YZ=     1.8185   ZZ=    26.4715
   Eigenvalues:    25.7845    28.4561    39.3860
    105  H    Isotropic =    30.5924   Anisotropy =    11.8296
   XX=    29.7283   YX=    -0.0709   ZX=    -5.1385
   XY=     0.5538   YY=    26.9685   ZY=     1.3210
   XZ=    -5.4548   YZ=     1.9453   ZZ=    35.0806
   Eigenvalues:    25.5790    27.7195    38.4789
    106  H    Isotropic =    30.5445   Anisotropy =    11.5546
   XX=    26.1919   YX=     2.3858   ZX=     0.3401
   XY=     2.1060   YY=    35.8073   ZY=     3.6290
   XZ=     0.0777   YZ=     4.6376   ZZ=    29.6343
   Eigenvalues:    25.5079    27.8781    38.2476
    107  H    Isotropic =    30.6991   Anisotropy =     7.7631
   XX=    32.3662   YX=    -1.7918   ZX=     3.9413
   XY=    -2.7024   YY=    27.7252   ZY=     0.6423
   XZ=     3.1538   YZ=     1.1539   ZZ=    32.0058
   Eigenvalues:    25.8713    30.3515    35.8745
    108  H    Isotropic =    30.9045   Anisotropy =    10.7457
   XX=    31.9199   YX=    -3.4639   ZX=    -4.7023
   XY=    -3.7747   YY=    34.0710   ZY=     1.7243
   XZ=    -4.1334   YZ=     0.8858   ZZ=    26.7226
   Eigenvalues:    24.1441    30.5011    38.0683
    109  H    Isotropic =    30.6885   Anisotropy =    13.8720
   XX=    29.5124   YX=     4.4883   ZX=     0.0311
   XY=     4.6550   YY=    36.8133   ZY=     4.0866
   XZ=     0.4195   YZ=     3.6831   ZZ=    25.7397
   Eigenvalues:    24.1692    27.9597    39.9365
    110  H    Isotropic =    31.8790   Anisotropy =    11.5716
   XX=    28.0163   YX=    -1.3309   ZX=     0.3733
   XY=    -0.8064   YY=    34.7742   ZY=    -4.9030
   XZ=     1.7587   YZ=    -6.1048   ZZ=    32.8463
   Eigenvalues:    27.7837    28.2598    39.5934
 End of Minotr F.D. properties file   721 does not exist.
 End of Minotr F.D. properties file   722 does not exist.
 End of Minotr F.D. properties file   788 does not exist.
 Hyperfine terms turned off by default for NAtoms > 100.

 **********************************************************************

            Population analysis using the SCF Density.

 **********************************************************************

 Orbital symmetries:
       Occupied  (A) (A) (A) (A) (A) (A) (A) (A) (A) (A) (A) (A)
                 (A) (A) (A) (A) (A) (A) (A) (A) (A) (A) (A) (A)
                 (A) (A) (A) (A) (A) (A) (A) (A) (A) (A) (A) (A)
                 (A) (A) (A) (A) (A) (A) (A) (A) (A) (A) (A) (A)
                 (A) (A) (A) (A) (A) (A) (A) (A) (A) (A) (A) (A)
                 (A) (A) (A) (A) (A) (A) (A) (A) (A) (A) (A) (A)
                 (A) (A) (A) (A) (A) (A) (A) (A) (A) (A) (A) (A)
                 (A) (A) (A) (A) (A) (A) (A) (A) (A) (A) (A) (A)
                 (A) (A) (A) (A) (A) (A) (A) (A) (A) (A) (A) (A)
                 (A) (A) (A) (A) (A) (A) (A) (A) (A) (A) (A) (A)
                 (A) (A) (A) (A) (A) (A) (A) (A) (A) (A) (A) (A)
                 (A) (A) (A) (A) (A) (A) (A) (A) (A) (A) (A) (A)
                 (A) (A) (A) (A) (A) (A) (A) (A) (A) (A) (A) (A)
                 (A) (A) (A) (A) (A) (A) (A) (A) (A) (A) (A) (A)
                 (A) (A) (A) (A) (A) (A) (A) (A) (A) (A) (A) (A)
                 (A) (A) (A) (A) (A) (A) (A) (A) (A) (A) (A) (A)
                 (A) (A) (A) (A) (A)
       Virtual   (A) (A) (A) (A) (A) (A) (A) (A) (A) (A) (A) (A)
                 (A) (A) (A) (A) (A) (A) (A) (A) (A) (A) (A) (A)
                 (A) (A) (A) (A) (A) (A) (A) (A) (A) (A) (A) (A)
                 (A) (A) (A) (A) (A) (A) (A) (A) (A) (A) (A) (A)
                 (A) (A) (A) (A) (A) (A) (A) (A) (A) (A) (A) (A)
                 (A) (A) (A) (A) (A) (A) (A) (A) (A) (A) (A) (A)
                 (A) (A) (A) (A) (A) (A) (A) (A) (A) (A) (A) (A)
                 (A) (A) (A) (A) (A) (A) (A) (A) (A) (A) (A) (A)
                 (A) (A) (A) (A) (A) (A) (A) (A) (A) (A) (A) (A)
                 (A) (A) (A) (A) (A) (A) (A) (A) (A) (A) (A) (A)
                 (A) (A) (A) (A) (A) (A) (A) (A) (A)
 The electronic state is 1-A.
 Alpha  occ. eigenvalues --  -20.31168 -20.30347 -20.25139 -20.24297 -19.91404
 Alpha  occ. eigenvalues --  -15.47982 -15.33981 -15.33078 -15.30196 -11.17167
 Alpha  occ. eigenvalues --  -11.16223 -11.10924 -11.10301 -11.10207 -11.09101
 Alpha  occ. eigenvalues --  -11.09024 -11.08452 -11.08356 -11.08173 -11.07503
 Alpha  occ. eigenvalues --  -11.07163 -11.07098 -11.06989 -11.06727 -11.06573
 Alpha  occ. eigenvalues --  -11.06086 -11.05821 -11.05759 -11.05460 -11.05434
 Alpha  occ. eigenvalues --  -11.05280 -11.05253 -11.05035 -11.05019 -11.04837
 Alpha  occ. eigenvalues --  -11.04812 -11.04529 -11.04089 -11.03925 -11.03895
 Alpha  occ. eigenvalues --  -11.03675 -11.03642 -11.03545 -11.03276 -11.01970
 Alpha  occ. eigenvalues --  -11.01826 -11.01806 -11.01709 -11.01478 -11.01402
 Alpha  occ. eigenvalues --  -11.01239 -11.01081 -11.00931 -11.00731  -1.38382
 Alpha  occ. eigenvalues --   -1.37563  -1.28213  -1.27804  -1.27360  -1.21418
 Alpha  occ. eigenvalues --   -1.20996  -1.18463  -1.11816  -1.09318  -1.08803
 Alpha  occ. eigenvalues --   -1.07337  -1.06122  -1.04554  -1.03437  -1.00706
 Alpha  occ. eigenvalues --   -1.00159  -0.98804  -0.98238  -0.97604  -0.96714
 Alpha  occ. eigenvalues --   -0.96433  -0.94148  -0.94100  -0.93878  -0.92329
 Alpha  occ. eigenvalues --   -0.92047  -0.91346  -0.91229  -0.89324  -0.87861
 Alpha  occ. eigenvalues --   -0.86552  -0.84846  -0.82750  -0.82295  -0.81601
 Alpha  occ. eigenvalues --   -0.80566  -0.79207  -0.78929  -0.78232  -0.77246
 Alpha  occ. eigenvalues --   -0.76848  -0.74663  -0.73599  -0.72866  -0.72024
 Alpha  occ. eigenvalues --   -0.71166  -0.69757  -0.69279  -0.69108  -0.66461
 Alpha  occ. eigenvalues --   -0.65591  -0.65278  -0.64576  -0.64467  -0.63741
 Alpha  occ. eigenvalues --   -0.62954  -0.61847  -0.61743  -0.61552  -0.60815
 Alpha  occ. eigenvalues --   -0.60620  -0.60291  -0.59452  -0.59259  -0.58640
 Alpha  occ. eigenvalues --   -0.58360  -0.58258  -0.57990  -0.57776  -0.57538
 Alpha  occ. eigenvalues --   -0.56991  -0.56752  -0.56374  -0.55916  -0.55527
 Alpha  occ. eigenvalues --   -0.55194  -0.55002  -0.54682  -0.54356  -0.54199
 Alpha  occ. eigenvalues --   -0.53548  -0.53498  -0.53006  -0.52648  -0.52086
 Alpha  occ. eigenvalues --   -0.51504  -0.51413  -0.51103  -0.50750  -0.50508
 Alpha  occ. eigenvalues --   -0.50375  -0.49712  -0.49486  -0.49105  -0.49007
 Alpha  occ. eigenvalues --   -0.48550  -0.48032  -0.47970  -0.47525  -0.47344
 Alpha  occ. eigenvalues --   -0.47066  -0.46530  -0.45875  -0.45774  -0.45507
 Alpha  occ. eigenvalues --   -0.45131  -0.44618  -0.44561  -0.44498  -0.44097
 Alpha  occ. eigenvalues --   -0.44074  -0.43274  -0.43172  -0.42542  -0.42280
 Alpha  occ. eigenvalues --   -0.42086  -0.41882  -0.41591  -0.41580  -0.41079
 Alpha  occ. eigenvalues --   -0.40933  -0.40100  -0.39173  -0.38976  -0.38116
 Alpha  occ. eigenvalues --   -0.37654  -0.37036  -0.36114  -0.35835  -0.34637
 Alpha  occ. eigenvalues --   -0.33839  -0.33733  -0.33046  -0.32450  -0.31623
 Alpha  occ. eigenvalues --   -0.27110  -0.26626  -0.25712  -0.21343  -0.20125
 Alpha  occ. eigenvalues --   -0.15037  -0.14782
 Alpha virt. eigenvalues --    0.26799   0.27228   0.27973   0.29658   0.29913
 Alpha virt. eigenvalues --    0.30754   0.46494   0.47042   0.48506   0.48659
 Alpha virt. eigenvalues --    0.49645   0.50008   0.50721   0.51013   0.52662
 Alpha virt. eigenvalues --    0.53033   0.54274   0.54482   0.55837   0.55986
 Alpha virt. eigenvalues --    0.56260   0.57517   0.58223   0.58428   0.58757
 Alpha virt. eigenvalues --    0.59325   0.59678   0.60030   0.60231   0.60621
 Alpha virt. eigenvalues --    0.61302   0.61868   0.62342   0.62449   0.62787
 Alpha virt. eigenvalues --    0.63457   0.63511   0.63907   0.64357   0.64481
 Alpha virt. eigenvalues --    0.64759   0.64884   0.65091   0.65184   0.65325
 Alpha virt. eigenvalues --    0.65496   0.65714   0.66129   0.66560   0.66987
 Alpha virt. eigenvalues --    0.67307   0.67421   0.67847   0.68002   0.68353
 Alpha virt. eigenvalues --    0.68870   0.69090   0.69284   0.69488   0.69764
 Alpha virt. eigenvalues --    0.69849   0.70159   0.70606   0.70803   0.70886
 Alpha virt. eigenvalues --    0.71015   0.71487   0.71539   0.71651   0.72315
 Alpha virt. eigenvalues --    0.73079   0.73283   0.73689   0.73943   0.74193
 Alpha virt. eigenvalues --    0.74335   0.74714   0.75001   0.75148   0.75384
 Alpha virt. eigenvalues --    0.75401   0.75490   0.75777   0.76271   0.76464
 Alpha virt. eigenvalues --    0.76637   0.77105   0.77301   0.77561   0.77896
 Alpha virt. eigenvalues --    0.78206   0.78379   0.78618   0.78968   0.79324
 Alpha virt. eigenvalues --    0.79608   0.79793   0.80106   0.80302   0.80852
 Alpha virt. eigenvalues --    0.80935   0.81500   0.81719   0.81955   0.82169
 Alpha virt. eigenvalues --    0.82817   0.83778   0.84458   0.84801   0.85054
 Alpha virt. eigenvalues --    0.86028   0.86714   0.86759   0.87415   0.87955
 Alpha virt. eigenvalues --    0.88243   0.89868   0.90858   0.92364   0.94235
 Alpha virt. eigenvalues --    0.94664   0.95488   0.98420   1.00732   1.01700
 Alpha virt. eigenvalues --    1.10766   1.12233   1.16013   1.16606
          Condensed to atoms (all electrons):
 Mulliken charges:
               1
     1  C   -0.073670
     2  C   -0.000228
     3  C   -0.062237
     4  C   -0.090069
     5  C    0.088866
     6  C   -0.013511
     7  N   -0.286784
     8  C    0.018345
     9  C    0.128177
    10  C    0.040789
    11  C   -0.114935
    12  C   -0.105553
    13  C    0.027903
    14  N   -0.291283
    15  C   -0.014626
    16  C   -0.108224
    17  C   -0.101961
    18  C   -0.105445
    19  C   -0.019415
    20  C   -0.110509
    21  C   -0.066371
    22  C    0.319707
    23  O   -0.277412
    24  O   -0.255188
    25  C   -0.055697
    26  C   -0.078867
    27  C   -0.109824
    28  C    0.002218
    29  C   -0.073565
    30  C   -0.059748
    31  C   -0.089997
    32  C    0.090096
    33  C   -0.019731
    34  N   -0.285960
    35  C    0.014540
    36  C    0.128831
    37  C    0.033960
    38  C   -0.115570
    39  C   -0.104003
    40  C    0.032509
    41  N   -0.074052
    42  C   -0.008226
    43  C   -0.101793
    44  C   -0.101911
    45  C   -0.120121
    46  C   -0.013339
    47  C   -0.111300
    48  C   -0.065895
    49  C    0.321160
    50  O   -0.278947
    51  O   -0.254389
    52  C   -0.055314
    53  C   -0.078831
    54  O   -0.455757
    55  H    0.064327
    56  H    0.060982
    57  H    0.059520
    58  H    0.056261
    59  H    0.050458
    60  H    0.054947
    61  H    0.047811
    62  H    0.050287
    63  H    0.053406
    64  H    0.061096
    65  H    0.053272
    66  H    0.050455
    67  H    0.049954
    68  H    0.051056
    69  H    0.063913
    70  H    0.062848
    71  H    0.056586
    72  H    0.050873
    73  H    0.050842
    74  H    0.067734
    75  H    0.064635
    76  H    0.074582
    77  H    0.077188
    78  H    0.071900
    79  H    0.055565
    80  H    0.072130
    81  H    0.075555
    82  H    0.057087
    83  H    0.060626
    84  H    0.075965
    85  H    0.058374
    86  H    0.059229
    87  H    0.092308
    88  H    0.057378
    89  H    0.052989
    90  H    0.051239
    91  H    0.056980
    92  H    0.087072
    93  H    0.060324
    94  H    0.076204
    95  H    0.059077
    96  H    0.064366
    97  H    0.054645
    98  H    0.072868
    99  H    0.069641
   100  H    0.074090
   101  H    0.094236
   102  H    0.065285
   103  H    0.055651
   104  H    0.066556
   105  H    0.072959
   106  H    0.078562
   107  H    0.075960
   108  H    0.076185
   109  H    0.072912
   110  H    0.056206
 Sum of Mulliken charges =  -0.00000
 Mulliken charges with hydrogens summed into heavy atoms:
               1
     1  C   -0.009342
     2  C   -0.000228
     3  C   -0.001255
     4  C   -0.030550
     5  C    0.088866
     6  C   -0.013511
     7  N   -0.286784
     8  C    0.018345
     9  C    0.128177
    10  C    0.097050
    11  C   -0.009530
    12  C   -0.007456
    13  C    0.027903
    14  N   -0.291283
    15  C    0.099876
    16  C   -0.004497
    17  C   -0.000951
    18  C    0.021316
    19  C    0.088043
    20  C    0.008068
    21  C   -0.001736
    22  C    0.319707
    23  O   -0.277412
    24  O   -0.255188
    25  C    0.167973
    26  C    0.124382
    27  C    0.007890
    28  C    0.002218
    29  C    0.002400
    30  C   -0.001373
    31  C   -0.030768
    32  C    0.090096
    33  C   -0.019731
    34  N   -0.285960
    35  C    0.014540
    36  C    0.128831
    37  C    0.126268
    38  C   -0.005203
    39  C    0.004216
    40  C    0.032509
    41  N   -0.074052
    42  C    0.139171
    43  C    0.033488
    44  C    0.017100
    45  C    0.022388
    46  C    0.154987
    47  C    0.009636
    48  C    0.000661
    49  C    0.321160
    50  O   -0.278947
    51  O   -0.254389
    52  C    0.172167
    53  C    0.126471
    54  O   -0.455757
 Electronic spatial extent (au):  <R**2>=          47661.7570
 Charge=              0.0000 electrons
 Dipole moment (field-independent basis, Debye):
    X=             -0.8074    Y=              2.5353    Z=              1.6247  Tot=              3.1176
 Quadrupole moment (field-independent basis, Debye-Ang):
   XX=           -258.6211   YY=           -303.6690   ZZ=           -301.1825
   XY=            -20.7337   XZ=             -9.1256   YZ=            -10.0833
 Traceless Quadrupole moment (field-independent basis, Debye-Ang):
   XX=             29.2031   YY=            -15.8448   ZZ=            -13.3583
   XY=            -20.7337   XZ=             -9.1256   YZ=            -10.0833
 Octapole moment (field-independent basis, Debye-Ang**2):
  XXX=           -123.7021  YYY=             46.5365  ZZZ=             78.7913  XYY=             26.8676
  XXY=             10.8808  XXZ=              3.7587  XZZ=              3.6003  YZZ=              5.6975
  YYZ=             75.7339  XYZ=             -1.7242
 Hexadecapole moment (field-independent basis, Debye-Ang**3):
 XXXX=         -44607.0152 YYYY=          -7619.5409 ZZZZ=          -5296.6061 XXXY=           -414.4425
 XXXZ=            -92.4944 YYYX=           -348.7815 YYYZ=            -69.6337 ZZZX=             68.1284
 ZZZY=              8.7535 XXYY=          -8967.4451 XXZZ=          -8897.6955 YYZZ=          -2082.9289
 XXYZ=           -171.7124 YYXZ=           -170.4748 ZZXY=           -277.7286
 N-N= 7.789484635593D+03 E-N=-2.095518827186D+04  KE= 2.279171582878D+03
 ******************************Gaussian NBO Version 3.1******************************
             N A T U R A L   A T O M I C   O R B I T A L   A N D
          N A T U R A L   B O N D   O R B I T A L   A N A L Y S I S
 ******************************Gaussian NBO Version 3.1******************************
       /RESON  / : Allow strongly delocalized NBO set
       /NLMO   / : Form Natural Localized Molecular Orbitals
       /NMR /    : Analyze NMR Sheilding Tensor 

 Analyzing the SCF density

 Job title: pleiokomenine_C_1a                                              

 Storage needed:    355564 in NPA,    438187 in NBO,   2133784 in NLMO ( 104796000 available)
 GSVD:  LWork=     -108884 too small for GESVD, short by      536270 words or      536270 for optimal perf.


 NATURAL POPULATIONS:  Natural atomic orbital occupancies 
                                                          
   NAO  Atom  No  lang   Type(AO)    Occupancy      Energy
 ----------------------------------------------------------
     1    C    1  S      Cor( 1S)     1.99993     -10.93755
     2    C    1  S      Val( 2S)     1.07965      -0.16899
     3    C    1  px     Val( 2p)     0.98519       0.12435
     4    C    1  py     Val( 2p)     0.98434       0.15756
     5    C    1  pz     Val( 2p)     1.00577       0.06404
 
     6    C    2  S      Cor( 1S)     1.99990     -10.94742
     7    C    2  S      Val( 2S)     1.07718      -0.17429
     8    C    2  px     Val( 2p)     0.95642       0.14230
     9    C    2  py     Val( 2p)     0.96037       0.17291
    10    C    2  pz     Val( 2p)     0.99309       0.07650
 
    11    C    3  S      Cor( 1S)     1.99994     -10.93882
    12    C    3  S      Val( 2S)     1.08472      -0.17384
    13    C    3  px     Val( 2p)     0.98186       0.12818
    14    C    3  py     Val( 2p)     0.97454       0.16070
    15    C    3  pz     Val( 2p)     0.99228       0.07099
 
    16    C    4  S      Cor( 1S)     1.99993     -10.93261
    17    C    4  S      Val( 2S)     1.07182      -0.16486
    18    C    4  px     Val( 2p)     0.99586       0.12443
    19    C    4  py     Val( 2p)     0.98947       0.15418
    20    C    4  pz     Val( 2p)     1.03018       0.05925
 
    21    C    5  S      Cor( 1S)     1.99985     -10.98042
    22    C    5  S      Val( 2S)     1.05986      -0.17738
    23    C    5  px     Val( 2p)     0.92361       0.14614
    24    C    5  py     Val( 2p)     0.97422       0.14021
    25    C    5  pz     Val( 2p)     0.93032       0.07808
 
    26    C    6  S      Cor( 1S)     1.99990     -10.93927
    27    C    6  S      Val( 2S)     1.08378      -0.18088
    28    C    6  px     Val( 2p)     0.97831       0.12759
    29    C    6  py     Val( 2p)     0.96430       0.15607
    30    C    6  pz     Val( 2p)     0.99854       0.08182
 
    31    N    7  S      Cor( 1S)     1.99998     -15.26309
    32    N    7  S      Val( 2S)     1.40460      -0.58871
    33    N    7  px     Val( 2p)     1.12539      -0.00502
    34    N    7  py     Val( 2p)     1.06753       0.03101
    35    N    7  pz     Val( 2p)     1.67780      -0.21909
 
    36    C    8  S      Cor( 1S)     1.99996     -11.00166
    37    C    8  S      Val( 2S)     1.10943      -0.22705
    38    C    8  px     Val( 2p)     0.95258       0.10875
    39    C    8  py     Val( 2p)     0.94449       0.11734
    40    C    8  pz     Val( 2p)     0.97329       0.08568
 
    41    C    9  S      Cor( 1S)     1.99996     -11.04570
    42    C    9  S      Val( 2S)     1.11172      -0.25148
    43    C    9  px     Val( 2p)     0.88992       0.11914
    44    C    9  py     Val( 2p)     0.89360       0.10020
    45    C    9  pz     Val( 2p)     0.93342       0.08738
 
    46    C   10  S      Cor( 1S)     1.99993     -11.01363
    47    C   10  S      Val( 2S)     1.09693      -0.21511
    48    C   10  px     Val( 2p)     0.95827       0.09509
    49    C   10  py     Val( 2p)     0.88429       0.11554
    50    C   10  pz     Val( 2p)     0.98622       0.09167
 
    51    C   11  S      Cor( 1S)     1.99994     -10.97667
    52    C   11  S      Val( 2S)     1.10372      -0.21102
    53    C   11  px     Val( 2p)     0.99923       0.08637
    54    C   11  py     Val( 2p)     0.99431       0.09023
    55    C   11  pz     Val( 2p)     0.98799       0.08646
 
    56    C   12  S      Cor( 1S)     1.99996     -10.97511
    57    C   12  S      Val( 2S)     1.09120      -0.19721
    58    C   12  px     Val( 2p)     0.99854       0.09333
    59    C   12  py     Val( 2p)     0.98396       0.08860
    60    C   12  pz     Val( 2p)     1.00010       0.09243
 
    61    C   13  S      Cor( 1S)     1.99998     -11.00142
    62    C   13  S      Val( 2S)     1.10488      -0.22506
    63    C   13  px     Val( 2p)     0.95598       0.10636
    64    C   13  py     Val( 2p)     0.94423       0.11322
    65    C   13  pz     Val( 2p)     0.94474       0.10770
 
    66    N   14  S      Cor( 1S)     1.99999     -15.23490
    67    N   14  S      Val( 2S)     1.42282      -0.57700
    68    N   14  px     Val( 2p)     1.57705      -0.16018
    69    N   14  py     Val( 2p)     1.09740       0.03312
    70    N   14  pz     Val( 2p)     1.18240      -0.00289
 
    71    C   15  S      Cor( 1S)     1.99994     -11.00561
    72    C   15  S      Val( 2S)     1.06919      -0.18698
    73    C   15  px     Val( 2p)     0.92814       0.11421
    74    C   15  py     Val( 2p)     0.93651       0.10140
    75    C   15  pz     Val( 2p)     1.02732       0.07419
 
    76    C   16  S      Cor( 1S)     1.99997     -10.97456
    77    C   16  S      Val( 2S)     1.08093      -0.18795
    78    C   16  px     Val( 2p)     0.98951       0.09254
    79    C   16  py     Val( 2p)     0.99515       0.09203
    80    C   16  pz     Val( 2p)     1.00903       0.09340
 
    81    C   17  S      Cor( 1S)     1.99996     -10.97746
    82    C   17  S      Val( 2S)     1.08581      -0.19289
    83    C   17  px     Val( 2p)     1.00161       0.09176
    84    C   17  py     Val( 2p)     0.97705       0.09334
    85    C   17  pz     Val( 2p)     1.00374       0.09125
 
    86    C   18  S      Cor( 1S)     1.99995     -10.97082
    87    C   18  S      Val( 2S)     1.09211      -0.19142
    88    C   18  px     Val( 2p)     1.01576       0.08902
    89    C   18  py     Val( 2p)     0.97497       0.09725
    90    C   18  pz     Val( 2p)     0.99279       0.10140
 
    91    C   19  S      Cor( 1S)     1.99994     -10.99594
    92    C   19  S      Val( 2S)     1.07169      -0.18061
    93    C   19  px     Val( 2p)     1.00870       0.08784
    94    C   19  py     Val( 2p)     0.99545       0.08459
    95    C   19  pz     Val( 2p)     0.89026       0.13010
 
    96    C   20  S      Cor( 1S)     1.99992     -10.98158
    97    C   20  S      Val( 2S)     1.09960      -0.20935
    98    C   20  px     Val( 2p)     0.99845       0.08288
    99    C   20  py     Val( 2p)     0.98111       0.09180
   100    C   20  pz     Val( 2p)     0.99467       0.08440
 
   101    C   21  S      Cor( 1S)     1.99994     -11.00538
   102    C   21  S      Val( 2S)     1.11081      -0.23599
   103    C   21  px     Val( 2p)     0.99937       0.06879
   104    C   21  py     Val( 2p)     1.00443       0.07231
   105    C   21  pz     Val( 2p)     0.96966       0.08170
 
   106    C   22  S      Cor( 1S)     1.99991     -11.10931
   107    C   22  S      Val( 2S)     1.05495      -0.25819
   108    C   22  px     Val( 2p)     0.86640      -0.01090
   109    C   22  py     Val( 2p)     0.76915       0.19002
   110    C   22  pz     Val( 2p)     0.90650       0.10441
 
   111    O   23  S      Cor( 1S)     1.99999     -20.09563
   112    O   23  S      Val( 2S)     1.80819      -1.05553
   113    O   23  px     Val( 2p)     1.32205      -0.15031
   114    O   23  py     Val( 2p)     1.51437      -0.17987
   115    O   23  pz     Val( 2p)     1.66702      -0.24290
 
   116    O   24  S      Cor( 1S)     1.99999     -20.21282
   117    O   24  S      Val( 2S)     1.73001      -1.02530
   118    O   24  px     Val( 2p)     1.78025      -0.33979
   119    O   24  py     Val( 2p)     1.43901      -0.19584
   120    O   24  pz     Val( 2p)     1.31754      -0.14098
 
   121    C   25  S      Cor( 1S)     1.99984     -11.04333
   122    C   25  S      Val( 2S)     1.07692      -0.22495
   123    C   25  px     Val( 2p)     1.01959       0.04624
   124    C   25  py     Val( 2p)     1.04625       0.03508
   125    C   25  pz     Val( 2p)     0.82269       0.08858
 
   126    C   26  S      Cor( 1S)     1.99992     -11.01082
   127    C   26  S      Val( 2S)     1.06526      -0.19126
   128    C   26  px     Val( 2p)     1.04136       0.05675
   129    C   26  py     Val( 2p)     0.87756       0.10480
   130    C   26  pz     Val( 2p)     1.03207       0.06656
 
   131    C   27  S      Cor( 1S)     1.99996     -10.97546
   132    C   27  S      Val( 2S)     1.08172      -0.17986
   133    C   27  px     Val( 2p)     0.99296       0.10085
   134    C   27  py     Val( 2p)     1.02121       0.09229
   135    C   27  pz     Val( 2p)     0.99136       0.10101
 
   136    C   28  S      Cor( 1S)     1.99990     -10.95216
   137    C   28  S      Val( 2S)     1.07754      -0.17851
   138    C   28  px     Val( 2p)     0.95750       0.13541
   139    C   28  py     Val( 2p)     0.95722       0.17509
   140    C   28  pz     Val( 2p)     0.99214       0.06903
 
   141    C   29  S      Cor( 1S)     1.99993     -10.94328
   142    C   29  S      Val( 2S)     1.08221      -0.17561
   143    C   29  px     Val( 2p)     0.98284       0.11768
   144    C   29  py     Val( 2p)     0.99090       0.15290
   145    C   29  pz     Val( 2p)     0.99758       0.05971
 
   146    C   30  S      Cor( 1S)     1.99994     -10.94582
   147    C   30  S      Val( 2S)     1.08400      -0.17961
   148    C   30  px     Val( 2p)     0.97974       0.12219
   149    C   30  py     Val( 2p)     0.97395       0.15973
   150    C   30  pz     Val( 2p)     0.99270       0.05912
 
   151    C   31  S      Cor( 1S)     1.99993     -10.93942
   152    C   31  S      Val( 2S)     1.07152      -0.17157
   153    C   31  px     Val( 2p)     0.99675       0.11623
   154    C   31  py     Val( 2p)     0.98562       0.15449
   155    C   31  pz     Val( 2p)     1.03405       0.04666
 
   156    C   32  S      Cor( 1S)     1.99985     -10.98842
   157    C   32  S      Val( 2S)     1.05979      -0.18515
   158    C   32  px     Val( 2p)     0.91915       0.13864
   159    C   32  py     Val( 2p)     0.97204       0.13906
   160    C   32  pz     Val( 2p)     0.93489       0.06380
 
   161    C   33  S      Cor( 1S)     1.99990     -10.94696
   162    C   33  S      Val( 2S)     1.08119      -0.18853
   163    C   33  px     Val( 2p)     0.98147       0.11707
   164    C   33  py     Val( 2p)     0.96361       0.15055
   165    C   33  pz     Val( 2p)     1.00694       0.06801
 
   166    N   34  S      Cor( 1S)     1.99998     -15.27212
   167    N   34  S      Val( 2S)     1.40524      -0.59757
   168    N   34  px     Val( 2p)     1.12120      -0.01145
   169    N   34  py     Val( 2p)     1.05217       0.02828
   170    N   34  pz     Val( 2p)     1.69590      -0.23549
 
   171    C   35  S      Cor( 1S)     1.99996     -11.01736
   172    C   35  S      Val( 2S)     1.10453      -0.24044
   173    C   35  px     Val( 2p)     0.96027       0.08571
   174    C   35  py     Val( 2p)     0.94923       0.09620
   175    C   35  pz     Val( 2p)     0.97296       0.07318
 
   176    C   36  S      Cor( 1S)     1.99996     -11.05729
   177    C   36  S      Val( 2S)     1.11027      -0.26178
   178    C   36  px     Val( 2p)     0.89728       0.10518
   179    C   36  py     Val( 2p)     0.88069       0.09309
   180    C   36  pz     Val( 2p)     0.93992       0.07405
 
   181    C   37  S      Cor( 1S)     1.99990     -11.03204
   182    C   37  S      Val( 2S)     1.12121      -0.25596
   183    C   37  px     Val( 2p)     0.96744       0.07008
   184    C   37  py     Val( 2p)     0.85133       0.09927
   185    C   37  pz     Val( 2p)     0.99526       0.06019
 
   186    C   38  S      Cor( 1S)     1.99994     -10.98662
   187    C   38  S      Val( 2S)     1.10458      -0.22168
   188    C   38  px     Val( 2p)     1.00017       0.07626
   189    C   38  py     Val( 2p)     0.99385       0.07993
   190    C   38  pz     Val( 2p)     0.98757       0.07684
 
   191    C   39  S      Cor( 1S)     1.99995     -10.98744
   192    C   39  S      Val( 2S)     1.09371      -0.21096
   193    C   39  px     Val( 2p)     1.00088       0.08140
   194    C   39  py     Val( 2p)     0.97861       0.07888
   195    C   39  pz     Val( 2p)     0.99781       0.08108
 
   196    C   40  S      Cor( 1S)     1.99998     -11.02178
   197    C   40  S      Val( 2S)     1.10339      -0.24168
   198    C   40  px     Val( 2p)     0.93869       0.09338
   199    C   40  py     Val( 2p)     0.95146       0.09473
   200    C   40  pz     Val( 2p)     0.95140       0.08739
 
   201    N   41  S      Cor( 1S)     1.99999     -15.41981
   202    N   41  S      Val( 2S)     1.40682      -0.66026
   203    N   41  px     Val( 2p)     1.14803      -0.09604
   204    N   41  py     Val( 2p)     1.18958      -0.10446
   205    N   41  pz     Val( 2p)     1.21541      -0.11279
 
   206    C   42  S      Cor( 1S)     1.99990     -11.03239
   207    C   42  S      Val( 2S)     1.08930      -0.22959
   208    C   42  px     Val( 2p)     0.92104       0.07757
   209    C   42  py     Val( 2p)     0.99850       0.05442
   210    C   42  pz     Val( 2p)     0.94581       0.07473
 
   211    C   43  S      Cor( 1S)     1.99996     -10.99064
   212    C   43  S      Val( 2S)     1.08063      -0.20008
   213    C   43  px     Val( 2p)     0.97490       0.08833
   214    C   43  py     Val( 2p)     1.00913       0.07495
   215    C   43  pz     Val( 2p)     1.00755       0.08233
 
   216    C   44  S      Cor( 1S)     1.99995     -10.98665
   217    C   44  S      Val( 2S)     1.08523      -0.20103
   218    C   44  px     Val( 2p)     1.00463       0.08308
   219    C   44  py     Val( 2p)     0.96527       0.09257
   220    C   44  pz     Val( 2p)     1.01571       0.07580
 
   221    C   45  S      Cor( 1S)     1.99995     -10.99070
   222    C   45  S      Val( 2S)     1.08949      -0.21106
   223    C   45  px     Val( 2p)     1.03431       0.06312
   224    C   45  py     Val( 2p)     0.97821       0.06764
   225    C   45  pz     Val( 2p)     0.99254       0.07936
 
   226    C   46  S      Cor( 1S)     1.99991     -11.02539
   227    C   46  S      Val( 2S)     1.09701      -0.23090
   228    C   46  px     Val( 2p)     0.92663       0.07182
   229    C   46  py     Val( 2p)     0.97443       0.06934
   230    C   46  pz     Val( 2p)     0.96393       0.06992
 
   231    C   47  S      Cor( 1S)     1.99992     -10.99565
   232    C   47  S      Val( 2S)     1.10123      -0.22448
   233    C   47  px     Val( 2p)     1.00830       0.06631
   234    C   47  py     Val( 2p)     0.97059       0.07817
   235    C   47  pz     Val( 2p)     0.99383       0.07339
 
   236    C   48  S      Cor( 1S)     1.99994     -11.01670
[...]
   97       0.2437       -0.8512       1.0949         0.0614       0.1823
   98      -0.1798        0.7689      -0.9487        -1.0463       0.8665
  102       1.4558        0.4134       1.0424         0.5088       0.9470
  103       0.3821        1.8482      -1.4661        -0.4562       0.8383
  104      -0.1365        1.9992      -2.1356        -1.1575       1.0210
  105       0.3739        3.6508      -3.2769        -0.6872       1.0611
  106       1.9667        4.7401      -2.7734         0.1269       1.8398
  107      26.3737       -0.7381      27.1118         0.5749      25.7988
  109      -0.0563        0.1482      -0.2045        -1.2058       1.1494
 Sum       29.8976       12.6317      17.2659        -4.5218      34.4194

 Contributions to Isotropic shielding for atom   96 (    31.9206 ppm):
                         Standard Origin              Atomic Origin
 NLMO      Total    Paramagnetic  Diamagnetic   Paramagnetic  Diamagnetic
   89      -0.7529        0.9013      -1.6542        -1.6125       0.8595
   90      -0.0309        1.6066      -1.6375        -0.7659       0.7349
   94      -0.2476        1.6029      -1.8505        -1.1646       0.9170
   97       2.2338       -2.2515       4.4853         1.3563       0.8775
   98      -0.3300        0.7308      -1.0608        -0.2084      -0.1216
   99      -0.4266        0.4888      -0.9154        -1.3470       0.9204
  102       0.4732       -1.2790       1.7522         0.2922       0.1810
  105       1.2085        0.6546       0.5538         0.1530       1.0555
  106      -0.1762       -0.5924       0.4163        -1.3915       1.2153
  107       0.2894        1.1522      -0.8627        -0.1564       0.4458
  108      26.1123        0.0417      26.0706         0.4852      25.6271
  109       1.3276        4.8194      -3.4917        -0.5052       1.8329
 Sum       29.6806        7.8752      21.8054        -4.8647      34.5453

 Contributions to Isotropic shielding for atom   97 (    32.2850 ppm):
                         Standard Origin              Atomic Origin
 NLMO      Total    Paramagnetic  Diamagnetic   Paramagnetic  Diamagnetic
   89      -0.5123        0.6346      -1.1469        -1.1474       0.6350
   94      -0.2637        2.3154      -2.5792        -0.9587       0.6949
   97       1.3017        0.4614       0.8403         0.4983       0.8033
   98      -0.5432        2.4798      -3.0230        -1.5325       0.9892
  102       0.2248       -0.8263       1.0511         0.2216       0.0032
  105       0.3446        3.8526      -3.5080        -0.6481       0.9927
  107      -0.1092        0.5297      -0.6388        -1.2884       1.1792
  108       2.0151        4.0645      -2.0494         0.2265       1.7886
  109      26.5814       -0.7767      27.3581         0.7354      25.8460
 Sum       29.0390       12.7349      16.3041        -3.8932      32.9322

 Contributions to Isotropic shielding for atom   98 (    33.2168 ppm):
                         Standard Origin              Atomic Origin
 NLMO      Total    Paramagnetic  Diamagnetic   Paramagnetic  Diamagnetic
   69      -0.2071       -0.4114       0.2044        -1.0962       0.8891
   71      -0.1452       -0.5290       0.3838        -1.0844       0.9392
   80       0.3043       -0.7489       1.0532        -0.6357       0.9400
   81       0.2740       -0.8703       1.1443        -0.5403       0.8143
   85       1.5261       -0.3994       1.9255         0.8480       0.6781
   89       0.4876       -0.7437       1.2313        -0.4530       0.9407
  110       1.5427       -0.7500       2.2927         0.8407       0.7019
  111      25.7397        0.6521      25.0876         0.3914      25.3484
  112       1.8772        1.4586       0.4186         0.1085       1.7687
  114       0.2084       -0.9856       1.1940        -0.8030       1.0114
  118       0.4738       -0.8015       1.2752        -0.2096       0.6833
  120       0.6277       -0.5044       1.1321         0.0192       0.6085
  121       0.1068       -1.6048       1.7116        -0.7519       0.8587
  191      -0.3798        0.7907      -1.1705         0.2242      -0.6040
 Sum       32.4361       -5.4476      37.8838        -3.1422      35.5783

 Contributions to Isotropic shielding for atom   99 (    32.7412 ppm):
                         Standard Origin              Atomic Origin
 NLMO      Total    Paramagnetic  Diamagnetic   Paramagnetic  Diamagnetic
   85       0.4376        2.2162      -1.7786        -0.2915       0.7291
   87       0.0991       -1.3476       1.4467        -0.7694       0.8685
   89       0.4452       -0.7396       1.1847        -0.4594       0.9046
   98       0.2782       -1.5730       1.8512        -0.4079       0.6861
  104      -0.1827       -2.1505       1.9679        -0.3707       0.1881
  105       0.1315       -0.8786       1.0102        -0.4846       0.6162
  110       0.6875        2.3238      -1.6364        -0.1423       0.8298
  111       2.2489        0.2853       1.9635         0.3329       1.9160
  112      26.1667       -0.3106      26.4772         0.5154      25.6513
  115       0.0752       -1.7865       1.8617        -0.8729       0.9480
  116      -0.2398       -2.5603       2.3205        -0.7697       0.5299
  118       0.6566       -1.1643       1.8210        -0.3262       0.9828
  120       1.2076       -1.1039       2.3115         0.3798       0.8278
  121       0.0854       -3.5376       3.6230        -1.1506       1.2359
  191      -0.8809        1.6905      -2.5714         0.0845      -0.9654
 Sum       31.2161      -10.6367      41.8527        -4.7325      35.9486

 Contributions to Isotropic shielding for atom  100 (    31.3415 ppm):
                         Standard Origin              Atomic Origin
 NLMO      Total    Paramagnetic  Diamagnetic   Paramagnetic  Diamagnetic
   99       0.6394       -1.3104       1.9497        -0.6400       1.2794
  100      -0.8105        2.9730      -3.7834        -1.5303       0.7198
  103      -0.0189       -2.6277       2.6089        -0.9704       0.9515
  104       0.1886       -2.2345       2.4231        -0.6984       0.8870
  112       0.0996       -0.1226       0.2223        -0.9761       1.0757
  113      26.1338        0.3496      25.7842         0.8540      25.2798
  114       2.0790       -0.9280       3.0070         0.1986       1.8804
 Sum       28.3111       -3.9006      32.2117        -3.7625      32.0736

 Contributions to Isotropic shielding for atom  101 (    30.5815 ppm):
                         Standard Origin              Atomic Origin
 NLMO      Total    Paramagnetic  Diamagnetic   Paramagnetic  Diamagnetic
   71      -0.1733       -0.5288       0.3555        -1.4017       1.2284
   89       1.3642       -0.6157       1.9798         0.7414       0.6227
  101       0.0907       -2.0165       2.1071        -0.8821       0.9728
  103       0.0356       -1.2876       1.3232        -0.6729       0.7084
  104       0.2022       -0.9887       1.1910        -0.4378       0.6401
  110       1.4430       -1.8298       3.2728         0.5862       0.8568
  113       1.5240       -0.3999       1.9239        -0.3559       1.8799
  114      25.3408        0.9123      24.4285         0.5637      24.7772
  195      -0.0619        2.1366      -2.1985         0.7521      -0.8140
 Sum       29.7652       -4.6180      34.3832        -1.1071      30.8723

 Contributions to Isotropic shielding for atom  102 (    31.5435 ppm):
                         Standard Origin              Atomic Origin
 NLMO      Total    Paramagnetic  Diamagnetic   Paramagnetic  Diamagnetic
   83      -0.3305        0.8064      -1.1369        -1.1435       0.8130
   85      -0.1794        0.9035      -1.0828        -0.9182       0.7388
   88       0.2799       -0.7970       1.0769        -0.1775       0.4574
   98       1.6488       -0.7701       2.4189         0.6906       0.9583
  105       0.1085       -1.1529       1.2613        -0.7697       0.8781
  115       1.6938       -1.2684       2.9622         0.8013       0.8925
  116      26.2322        0.2142      26.0180         0.5706      25.6616
  117       1.0633        4.1608      -3.0974        -0.8408       1.9042
  118      -0.3907        0.3853      -0.7760        -1.4561       1.0654
  119       0.3151        1.3653      -1.0502        -0.0950       0.4101
  120      -0.4156       -0.5442       0.1286        -1.2913       0.8757
  121       0.3572       -0.1925       0.5497        -1.3570       1.7143
 Sum       30.3828        3.1104      27.2724        -5.9865      36.3693

 Contributions to Isotropic shielding for atom  103 (    32.0794 ppm):
                         Standard Origin              Atomic Origin
 NLMO      Total    Paramagnetic  Diamagnetic   Paramagnetic  Diamagnetic
   88       0.3971       -0.7374       1.1346         0.7634      -0.3663
   94      -0.2109        1.2566      -1.4675        -1.0545       0.8436
   95      -0.0300       -1.2128       1.1828        -0.8005       0.7705
   97      -0.2759        1.6932      -1.9691        -1.0563       0.7804
   98       0.5783        2.8107      -2.2324        -0.4404       1.0187
  109       0.0174       -2.0682       2.0856        -0.7541       0.7715
  115       0.7167        2.8626      -2.1459        -0.3489       1.0656
  116       1.7957        3.4157      -1.6199        -0.1050       1.9007
  117      26.7133       -0.9005      27.6138         0.9008      25.8125
  118      -0.2206        1.0601      -1.2807        -0.5919       0.3713
  119      -0.1720        1.2987      -1.4707        -1.3147       1.1427
  120      -0.2899        0.0540      -0.3439        -1.0246       0.7347
  121      -0.0038        0.5084      -0.5122        -1.0781       1.0743
 Sum       29.0154       10.0410      18.9744        -6.9047      35.9201

 Contributions to Isotropic shielding for atom  104 (    31.2088 ppm):
                         Standard Origin              Atomic Origin
 NLMO      Total    Paramagnetic  Diamagnetic   Paramagnetic  Diamagnetic
   81      -0.4260        1.0304      -1.4563        -1.0648       0.6388
   82      -0.2679        0.9529      -1.2207        -1.1957       0.9279
   86      -0.5993        2.1244      -2.7237        -1.7386       1.1393
   87       1.8028        0.2276       1.5751         0.8587       0.9441
  115       0.4173        5.0354      -4.6181        -0.7591       1.1763
  117      -0.0387       -1.1756       1.1369        -1.1927       1.1540
  118       0.5573        4.1966      -3.6393        -0.3948       0.9521
  119      26.0717       -1.1802      27.2519         0.5480      25.5237
  122      -0.3895       -0.3633      -0.0262        -2.0344       1.6449
  127      -0.1869       -1.3644       1.1775        -0.5980       0.4111
 Sum       26.9409        9.4839      17.4570        -7.5714      34.5122

 Contributions to Isotropic shielding for atom  105 (    30.5925 ppm):
                         Standard Origin              Atomic Origin
 NLMO      Total    Paramagnetic  Diamagnetic   Paramagnetic  Diamagnetic
  120      -0.8050        0.2283      -1.0333        -1.7082       0.9032
  121      -0.1309        1.0765      -1.2074        -1.6758       1.5449
  122      -1.1387        0.6269      -1.7656        -1.9178       0.7791
  123       0.1957        3.1504      -2.9547        -1.2719       1.4676
  124      26.3566        0.4173      25.9392         1.1254      25.2312
  125       1.2575        3.5981      -2.3407        -0.7841       2.0415
  126       1.7673        0.0914       1.6759        -0.1050       1.8723
  191       0.3122       -0.9604       1.2726         1.0909      -0.7787
  193       1.3841       -1.1497       2.5338         1.4441      -0.0600
 Sum       29.1987        7.0788      22.1199        -3.8024      33.0012

 Contributions to Isotropic shielding for atom  106 (    30.5445 ppm):
                         Standard Origin              Atomic Origin
 NLMO      Total    Paramagnetic  Diamagnetic   Paramagnetic  Diamagnetic
  121       0.1092        0.2251      -0.1159        -0.9183       1.0275
  123       1.0779        0.4919       0.5860        -0.9982       2.0761
  124       0.7566        3.3818      -2.6252        -1.2287       1.9853
  125      25.9453        0.5107      25.4345         0.7655      25.1798
  126       1.9537       -1.1070       3.0607        -0.0428       1.9964
 Sum       29.8426        3.5025      26.3401        -2.4226      32.2652

 Contributions to Isotropic shielding for atom  107 (    30.6991 ppm):
                         Standard Origin              Atomic Origin
 NLMO      Total    Paramagnetic  Diamagnetic   Paramagnetic  Diamagnetic
  120      -0.2142       -0.3750       0.1608        -1.1147       0.9005
  121       0.2006       -0.4454       0.6461        -1.3315       1.5322
  123       2.5799       -5.0845       7.6643         1.1669       1.4130
  124       1.2783        1.0566       0.2218        -0.5966       1.8749
  125       1.7774       -0.8459       2.6234        -0.2671       2.0446
  126      25.8280        1.0420      24.7860         0.6737      25.1543
  194      -0.1885       -1.0478       0.8593        -0.7209       0.5324
 Sum       31.2616       -5.7000      36.9616        -2.1901      33.4517

 Contributions to Isotropic shielding for atom  108 (    30.9045 ppm):
                         Standard Origin              Atomic Origin
 NLMO      Total    Paramagnetic  Diamagnetic   Paramagnetic  Diamagnetic
   76      -0.4129        0.1818      -0.5947        -1.2672       0.8543
   81      -0.7222        1.7644      -2.4866        -1.4758       0.7537
   82       0.7128        0.6650       0.0478        -0.4639       1.1767
   86      -0.1980        0.4969      -0.6949        -1.0372       0.8391
   87      -0.1517        0.5052      -0.6570        -1.0261       0.8743
   93      -0.1453       -1.6722       1.5269        -0.6649       0.5196
  119      -0.1665       -1.7139       1.5474        -0.7816       0.6151
  127      26.0166        0.0546      25.9620         0.6826      25.3339
  128       1.8495        2.3849      -0.5353        -0.1321       1.9816
  129       1.1800        2.8209      -1.6409        -0.6557       1.8357
  190       1.3579       -0.0665       1.4244         1.3574       0.0005
  193      -0.9274        0.2748      -1.2022         0.3994      -1.3267
 Sum       28.3928        5.6959      22.6969        -5.0651      33.4578

 Contributions to Isotropic shielding for atom  109 (    30.6885 ppm):
                         Standard Origin              Atomic Origin
 NLMO      Total    Paramagnetic  Diamagnetic   Paramagnetic  Diamagnetic
   75      -0.5219        0.5140      -1.0359        -1.2345       0.7126
   76      -0.5908        0.2370      -0.8278        -1.9491       1.3583
   82       1.9835       -2.2276       4.2110         0.7311       1.2524
  127       1.5040        2.5626      -1.0586        -0.4649       1.9689
  128      25.8888        0.4683      25.4205         0.5495      25.3393
  129       1.6238        1.0114       0.6124        -0.1704       1.7942
  193      -0.5904        0.6037      -1.1941         0.2835      -0.8739
 Sum       29.2969        3.1694      26.1276        -2.2549      31.5519

 Contributions to Isotropic shielding for atom  110 (    31.8790 ppm):
                         Standard Origin              Atomic Origin
 NLMO      Total    Paramagnetic  Diamagnetic   Paramagnetic  Diamagnetic
   75      -0.3125        0.8312      -1.1437        -0.9333       0.6208
   76      -1.0093        0.5558      -1.5652        -2.2050       1.1957
   79      -0.2967        0.8989      -1.1956        -0.9772       0.6805
   81      -0.4153        0.8537      -1.2691        -0.6205       0.2051
   82       1.5608       -1.4395       3.0003         0.7930       0.7678
   86       0.0752       -0.4005       0.4757        -0.9482       1.0235
   93      -0.1609       -1.9570       1.7961        -0.9069       0.7459
  127       1.6893        3.6512      -1.9619        -0.2308       1.9201
  128       1.9342        1.0606       0.8736         0.0401       1.8941
  129      26.5904        0.5287      26.0617         0.9006      25.6898
 Sum       29.6551        4.5832      25.0720        -5.0882      34.7434
 
 1\1\GINC-PCSN02\SP\RHF\STO-3G\C45H56N4O5\ABENIDD\30-May-2024\0\\# nmr=
 giao hf/sto-3g pop=nbo geom=connectivity\\pleiokomenine_C_1a\\0,1\C,0,
 0.,0.,0.\C,0,1.4009,0.,0.\C,0,2.0934,1.2297,0.\C,0,1.4089,2.4516,-0.02
 \C,0,0.0255,2.4442,-0.0479\C,0,-0.6635,1.2186,-0.0198\N,0,-0.8559,3.55
 72,-0.1083\C,0,-2.1436,1.4982,0.0632\C,0,-2.1185,2.9383,-0.5848\C,0,-3
 .1478,0.6203,-0.6984\C,0,-2.0595,2.7883,-2.1678\C,0,-3.3016,2.067,-2.7
 056\C,0,-4.1245,1.532,-1.5176\N,0,-3.7671,-0.2179,0.3308\C,0,-4.991,-0
 .8936,-0.074\C,0,-5.9928,-0.0238,-0.8325\C,0,-5.3263,0.706,-1.9985\C,0
 ,-2.5329,1.3321,1.5524\C,0,-3.8416,0.5531,1.5623\C,0,-4.6052,2.8035,-0
 .7384\C,0,-3.4195,3.7186,-0.3267\C,0,-3.6042,4.3109,1.0594\O,0,-4.402,
 3.9071,1.8966\O,0,-2.816,5.4102,1.2227\C,0,-2.9005,6.004,2.5178\C,0,-0
 .3327,4.7726,-0.7127\C,0,2.1626,-1.3047,0.0554\C,0,2.3897,-1.8053,1.46
 4\C,0,3.4525,-1.3006,2.2245\C,0,1.5113,-2.7452,2.0406\C,0,1.6995,-3.20
 83,3.3489\C,0,2.766,-2.7227,4.0856\C,0,3.6086,-1.745,3.5291\N,0,3.1649
 ,-3.0957,5.398\C,0,4.5897,-1.3039,4.5854\C,0,4.5653,-2.615,5.4632\C,0,
 6.0303,-0.9831,4.1972\C,0,5.5329,-3.6849,4.7966\C,0,6.985,-3.1793,4.78
 11\C,0,7.0084,-1.6851,5.1831\N,0,6.1598,0.5418,4.0865\C,0,7.107,1.1233
 ,5.1073\C,0,8.4609,0.4282,5.142\C,0,8.4107,-1.0955,5.0194\C,0,4.0787,0
 .0179,5.1743\C,0,4.7585,1.0691,4.3159\C,0,6.5261,-1.6621,6.6767\C,0,5.
 1642,-2.3965,6.865\C,0,4.2737,-1.729,7.9028\O,0,4.4571,-0.6096,8.3651\
 O,0,3.2951,-2.5772,8.3216\C,0,2.3981,-2.014,9.279\C,0,2.8103,-4.4441,5
 .8195\O,0,6.5871,0.8937,2.8303\H,0,-0.5614,-0.9285,0.0469\H,0,3.1819,1
 .2405,0.0262\H,0,1.9704,3.3785,-0.0115\H,0,-2.6282,-0.0533,-1.3934\H,0
 ,-1.9872,3.7735,-2.6463\H,0,-1.1641,2.243,-2.4913\H,0,-3.9009,2.7562,-
 3.3139\H,0,-2.9942,1.2544,-3.3755\H,0,-4.7063,-1.7303,-0.7252\H,0,-5.4
 797,-1.354,0.7933\H,0,-6.8003,-0.6568,-1.2188\H,0,-6.4622,0.6922,-0.14
 91\H,0,-4.997,-0.0359,-2.7376\H,0,-6.0609,1.3449,-2.5031\H,0,-1.7916,0
 .7235,2.0907\H,0,-2.5893,2.2656,2.111\H,0,-3.8964,-0.1017,2.4387\H,0,-
 4.7042,1.2202,1.601\H,0,-5.2715,3.3893,-1.388\H,0,-5.2305,2.5338,0.112
 8\H,0,-3.4555,4.5915,-0.9967\H,0,-2.6294,5.28,3.2926\H,0,-2.1893,6.833
 7,2.5568\H,0,-3.9058,6.4005,2.6906\H,0,0.1229,4.5828,-1.6911\H,0,0.417
 1,5.2321,-0.0598\H,0,-1.1288,5.5103,-0.8522\H,0,1.6286,-2.0651,-0.5299
 \H,0,3.13,-1.1927,-0.4523\H,0,4.1292,-0.5607,1.8035\H,0,0.6671,-3.122,
 1.4668\H,0,1.0095,-3.9343,3.7631\H,0,6.2397,-1.3369,3.1771\H,0,5.2267,
 -3.9227,3.7702\H,0,5.4944,-4.6377,5.3398\H,0,7.596,-3.7741,5.4721\H,0,
 7.414,-3.3323,3.783\H,0,7.2287,2.1808,4.8412\H,0,6.6067,1.0935,6.0769\
 H,0,9.0909,0.8201,4.3335\H,0,8.9697,0.704,6.0736\H,0,8.7969,-1.3631,4.
 0262\H,0,9.1089,-1.546,5.7357\H,0,2.9894,0.132,5.1635\H,0,4.412,0.1808
 ,6.1946\H,0,4.8199,2.053,4.7906\H,0,4.2863,1.1777,3.3349\H,0,6.4869,-0
 .6463,7.0686\H,0,7.2734,-2.17,7.3028\H,0,5.4001,-3.3742,7.3134\H,0,2.9
 286,-1.7822,10.2077\H,0,1.6256,-2.7566,9.4967\H,0,1.9137,-1.1198,8.874
 1\H,0,3.3024,-4.6987,6.7632\H,0,1.7312,-4.5196,5.991\H,0,3.1025,-5.196
 9,5.0784\\Version=ES64L-G16RevB.01\State=1-A\HF=-2300.2212197\RMSD=9.8
 87e-09\Dipole=-0.5032763,-0.5868038,0.9522625\Quadrupole=-10.5188908,4
 .7648056,5.7540852,-12.4606522,19.039423,-9.6571387\PG=C01 [X(C45H56N4
 O5)]\\@


 WHEN YOU REACH FOR THE STARS, YOU MAY NOT QUITE GET ONE,
 BUT YOU WON'T COME UP WITH A HANDFUL OF MUD, EITHER.

                                         -- LEO BURNETT (AD AGENCY HEAD)
 Job cpu time:       0 days  0 hours 10 minutes 19.2 seconds.
 Elapsed time:       0 days  0 hours  1 minutes 46.2 seconds.
 File lengths (MBytes):  RWF=     67 Int=      0 D2E=      0 Chk=     10 Scr=      1
 Normal termination of Gaussian 16 at Thu May 30 09:12:23 2024.
