 Entering Gaussian System, Link 0=g16
 Input=1_pleiokomenine_1a_c_6.gjf
 Output=1_pleiokomenine_1a_c_6.log
 Initial command:
 /opt/gaussian/g16/l1.exe "/data/abenidd/Elvis/pleiokomenine_C/NMR_HF/1a/1_pleiokomenine_1a_c_6/Gau-26229.inp" -scrdir="/data/abenidd/Elvis/pleiokomenine_C/NMR_HF/1a/1_pleiokomenine_1a_c_6/"
 Entering Link 1 = /opt/gaussian/g16/l1.exe PID=     26231.
  
 Copyright (c) 1988-2017, Gaussian, Inc.  All Rights Reserved.
  
 This is part of the Gaussian(R) 16 program.  It is based on
 the Gaussian(R) 09 system (copyright 2009, Gaussian, Inc.),
 the Gaussian(R) 03 system (copyright 2003, Gaussian, Inc.),
 the Gaussian(R) 98 system (copyright 1998, Gaussian, Inc.),
 the Gaussian(R) 94 system (copyright 1995, Gaussian, Inc.),
 the Gaussian 92(TM) system (copyright 1992, Gaussian, Inc.),
 the Gaussian 90(TM) system (copyright 1990, Gaussian, Inc.),
 the Gaussian 88(TM) system (copyright 1988, Gaussian, Inc.),
 the Gaussian 86(TM) system (copyright 1986, Carnegie Mellon
 University), and the Gaussian 82(TM) system (copyright 1983,
 Carnegie Mellon University). Gaussian is a federally registered
 trademark of Gaussian, Inc.
  
 This software contains proprietary and confidential information,
 including trade secrets, belonging to Gaussian, Inc.
  
 This software is provided under written license and may be
 used, copied, transmitted, or stored only in accord with that
 written license.
  
 The following legend is applicable only to US Government
 contracts under FAR:
  
                    RESTRICTED RIGHTS LEGEND
  
 Use, reproduction and disclosure by the US Government is
 subject to restrictions as set forth in subparagraphs (a)
 and (c) of the Commercial Computer Software - Restricted
 Rights clause in FAR 52.227-19.
  
 Gaussian, Inc.
 340 Quinnipiac St., Bldg. 40, Wallingford CT 06492
  
  
 ---------------------------------------------------------------
 Warning -- This program may not be used in any manner that
 competes with the business of Gaussian, Inc. or will provide
 assistance to any competitor of Gaussian, Inc.  The licensee
 of this program is prohibited from giving any competitor of
 Gaussian, Inc. access to this program.  By using this program,
 the user acknowledges that Gaussian, Inc. is engaged in the
 business of creating and licensing software in the field of
 computational chemistry and represents and warrants to the
 licensee that it is not a competitor of Gaussian, Inc. and that
 it will not use this program in any manner prohibited above.
 ---------------------------------------------------------------
  

 Cite this work as:
 Gaussian 16, Revision B.01,
 M. J. Frisch, G. W. Trucks, H. B. Schlegel, G. E. Scuseria, 
 M. A. Robb, J. R. Cheeseman, G. Scalmani, V. Barone, 
 G. A. Petersson, H. Nakatsuji, X. Li, M. Caricato, A. V. Marenich, 
 J. Bloino, B. G. Janesko, R. Gomperts, B. Mennucci, H. P. Hratchian, 
 J. V. Ortiz, A. F. Izmaylov, J. L. Sonnenberg, D. Williams-Young, 
 F. Ding, F. Lipparini, F. Egidi, J. Goings, B. Peng, A. Petrone, 
 T. Henderson, D. Ranasinghe, V. G. Zakrzewski, J. Gao, N. Rega, 
 G. Zheng, W. Liang, M. Hada, M. Ehara, K. Toyota, R. Fukuda, 
 J. Hasegawa, M. Ishida, T. Nakajima, Y. Honda, O. Kitao, H. Nakai, 
 T. Vreven, K. Throssell, J. A. Montgomery, Jr., J. E. Peralta, 
 F. Ogliaro, M. J. Bearpark, J. J. Heyd, E. N. Brothers, K. N. Kudin, 
 V. N. Staroverov, T. A. Keith, R. Kobayashi, J. Normand, 
 K. Raghavachari, A. P. Rendell, J. C. Burant, S. S. Iyengar, 
 J. Tomasi, M. Cossi, J. M. Millam, M. Klene, C. Adamo, R. Cammi, 
 J. W. Ochterski, R. L. Martin, K. Morokuma, O. Farkas, 
 J. B. Foresman, and D. J. Fox, Gaussian, Inc., Wallingford CT, 2016.
 
 ******************************************
 Gaussian 16:  ES64L-G16RevB.01 20-Dec-2017
                30-May-2024 
 ******************************************
 %nprocshared=8
 Will use up to    8 processors via shared memory.
 ----------------------------------------------
 # nmr=giao hf/sto-3g pop=nbo geom=connectivity
 ----------------------------------------------
 1/38=1,57=2,172=1/1;
 2/12=2,17=6,18=5,40=1/2;
 3/6=3,11=9,25=1,30=1/1,2,3,8;
 4//1;
 5/5=2,38=5/2;
 8/6=1,10=90,11=11/1;
 10/13=100,45=16/2;
 6/7=2,8=2,9=2,10=2,28=1,40=1,64=1/1,7;
 99/9=1/99;
 ------------------
 pleiokomenine_C_1a
 ------------------
 Symbolic Z-matrix:
 Charge =  0 Multiplicity = 1
 C                     0.        0.        0. 
 C                     1.4009    0.        0. 
 C                     2.0938    1.2296    0. 
 C                     1.4098    2.4518   -0.0154 
 C                     0.0264    2.4446   -0.0417 
 C                    -0.6631    1.219    -0.0153 
 N                    -0.8551    3.5582   -0.1016 
 C                    -2.1431    1.4996    0.0671 
 C                    -2.1168    2.9399   -0.5803 
 C                    -3.1475    0.6226   -0.6949 
 C                    -2.0562    2.7906   -2.1632 
 C                    -3.2978    2.0693   -2.7024 
 C                    -4.1226    1.5349   -1.5154 
 N                    -3.7688   -0.2145    0.3343 
 C                    -4.9927   -0.8894   -0.0716 
 C                    -5.9928   -0.0193   -0.8321 
 C                    -5.3243    0.7096   -1.9976 
 C                    -2.5333    1.3337    1.5561 
 C                    -3.8436    0.5574    1.5651 
 C                    -4.6034    2.8068   -0.7371 
 C                    -3.4178    3.7207   -0.3232 
 C                    -3.6036    4.3119    1.0633 
 O                    -4.4028    3.9078    1.8992 
 O                    -2.8151    5.4106    1.2286 
 C                    -2.8972    6.0006    2.5255 
 C                    -0.3297    4.7731   -0.7049 
 C                     2.1659   -1.3038    0.0325 
 C                     2.7943   -1.6063    1.374 
 C                     4.1664   -1.401     1.57 
 C                     2.0007   -2.0544    2.4497 
 C                     2.5612   -2.3153    3.7059 
 C                     3.922    -2.1327    3.8847 
 C                     4.7085   -1.6576    2.8209 
 N                     4.6888   -2.3727    5.0555 
 C                     6.1156   -1.4286    3.3174 
 C                     6.0681   -2.4545    4.5227 
 C                     7.3281   -1.7577    2.4295 
 C                     6.3285   -3.9184    3.955 
 C                     7.7198   -4.0272    3.3148 
 C                     8.3504   -2.6203    3.2454 
 N                     7.8428   -0.4167    1.9354 
 C                     9.2678   -0.4516    1.4483 
 C                     10.236   -1.2472    2.3019 
 C                     9.7102   -2.6576    2.5411 
 C                     6.2394    0.0894    3.6118 
 C                     7.5937    0.5265    3.0695 
 C                     8.5301   -2.1841    4.74 
 C                     7.202    -2.2329    5.5355 
 C                     7.0614   -1.0526    6.4805 
 O                     7.7106   -0.0165    6.3994 
 O                     6.171    -1.3274    7.4721 
 C                     5.9466   -0.2451    8.3756 
 C                     4.1699   -3.3682    5.9814 
 O                     7.0803   -0.0057    0.8499 
 H                    -0.5624   -0.9283    0.0395 
 H                     3.1829    1.2369    0.0236 
 H                     1.9726    3.3777   -0.0056 
 H                    -2.6282   -0.052    -1.3892 
 H                    -1.9837    3.776    -2.6411 
 H                    -1.1604    2.2457   -2.4862 
 H                    -3.896     2.7583   -3.312 
 H                    -2.9896    1.2563   -3.3715 
 H                    -4.7078   -1.7267   -0.722 
 H                    -5.4829   -1.3487    0.7953 
 H                    -6.8002   -0.652    -1.2193 
 H                    -6.4627    0.6973   -0.1498 
 H                    -4.9946   -0.0329   -2.736 
 H                    -6.0578    1.3487   -2.5035 
 H                    -2.5878    2.2671    2.1152 
 H                    -1.7934    0.7232    2.0941 
 H                    -3.9007   -0.0967    2.4418 
 H                    -4.7051    1.2261    1.6023 
 H                    -5.2679    3.3933   -1.3881 
 H                    -5.2308    2.5379    0.1128 
 H                    -3.4523    4.5944   -0.9923 
 H                    -2.1842    6.8287    2.5664 
 H                    -3.9015    6.3985    2.7003 
 H                    -2.6268    5.2737    3.2979 
 H                     0.1264    4.5834   -1.6832 
 H                     0.4201    5.2315   -0.0512 
 H                    -1.1248    5.5118   -0.8448 
 H                     2.9347   -1.2815   -0.7513 
 H                     1.5073   -2.1379   -0.244 
 H                     4.7902   -1.0117    0.769 
 H                     0.9296   -2.1882    2.3125 
 H                     1.9231   -2.6488    4.5157 
 H                     7.0423   -2.2935    1.5134 
 H                     6.2482   -4.6635    4.757 
 H                     5.5723   -4.2072    3.2144 
 H                     7.633    -4.475     2.3169 
 H                     8.3493   -4.7073    3.9025 
 H                     9.2212   -0.8946    0.4448 
 H                     9.5838    0.5926    1.3456 
 H                     11.202   -1.3059    1.7869 
 H                     10.4262  -0.7317    3.2478 
 H                     9.6207   -3.1766    1.5779 
 H                     10.4379  -3.2253    3.1335 
 H                     5.4781    0.6598    3.0604 
 H                     6.0848    0.3686    4.6528 
 H                     8.4042    0.4273    3.7882 
 H                     7.5869    1.5461    2.6706 
 H                     9.0149   -1.2116    4.8157 
 H                     9.2366   -2.8716    5.2278 
 H                     7.2698   -3.1061    6.2025 
 H                     5.5872    0.6379    7.8377 
 H                     6.8616   -0.0164    8.9307 
 H                     5.1763   -0.5529    9.0879 
 H                     4.9014   -3.588     6.7649 
 H                     3.2705   -2.9936    6.4818 
 H                     3.9255   -4.3105    5.478 
 
 Stoichiometry    C45H56N4O5
 Framework group  C1[X(C45H56N4O5)]
 Deg. of freedom   324
 Full point group                 C1      NOp   1
 Largest Abelian subgroup         C1      NOp   1
 Largest concise Abelian subgroup C1      NOp   1
                         Standard orientation:                         
 ---------------------------------------------------------------------
 Center     Atomic      Atomic             Coordinates (Angstroms)
 Number     Number       Type             X           Y           Z
 ---------------------------------------------------------------------
      1          6           0        2.420449   -0.264371   -1.409155
      2          6           0        1.196358   -0.940253   -1.323675
      3          6           0        0.997377   -1.885959   -0.295048
      4          6           0        2.004562   -2.174788    0.634480
      5          6           0        3.220362   -1.522734    0.528670
      6          6           0        3.408279   -0.561620   -0.480860
      7          7           0        4.380093   -1.694365    1.332600
      8          6           0        4.764853    0.072317   -0.297134
      9          6           0        5.448902   -1.123387    0.475298
     10          6           0        5.624365    0.443507   -1.514529
     11          6           0        5.911179   -2.219811   -0.580964
     12          6           0        6.949956   -1.650941   -1.555598
     13          6           0        7.070627   -0.131338   -1.329562
     14          7           0        5.523440    1.901654   -1.612621
     15          6           0        6.514544    2.535035   -2.469778
     16          6           0        7.947300    2.036502   -2.284549
     17          6           0        8.019830    0.511098   -2.351330
     18          6           0        4.519874    1.416780    0.430399
     19          6           0        5.404969    2.441449   -0.266932
     20          6           0        7.633594    0.029419    0.123668
     21          6           0        6.752108   -0.698555    1.174958
     22          6           0        6.615359    0.096919    2.461403
     23          8           0        6.881963    1.286203    2.584981
     24          8           0        6.230614   -0.710624    3.489043
     25          6           0        6.034814   -0.029195    4.727634
     26          6           0        4.537795   -2.986987    1.980872
     27          6           0        0.085323   -0.637598   -2.303561
     28          6           0       -1.042244    0.176990   -1.711061
     29          6           0       -2.243212   -0.445746   -1.346235
     30          6           0       -0.880609    1.558370   -1.480003
     31          6           0       -1.904669    2.323522   -0.908943
     32          6           0       -3.097133    1.705123   -0.573231
     33          6           0       -3.247883    0.322324   -0.775996
     34          7           0       -4.264087    2.298769   -0.023543
     35          6           0       -4.578780   -0.112393   -0.211534
     36          6           0       -5.306307    1.289782   -0.321465
     37          6           0       -5.430347   -1.173999   -0.928930
     38          6           0       -5.815276    1.482694   -1.817069
     39          6           0       -6.838600    0.403897   -2.199711
     40          6           0       -6.899781   -0.649957   -1.073882
     41          7           0       -5.260560   -2.445417   -0.115296
     42          6           0       -6.343508   -3.466818   -0.345664
     43          6           0       -7.756970   -2.922805   -0.417779
     44          6           0       -7.849082   -1.795331   -1.439164
     45          6           0       -4.290158   -0.714643    1.188578
     46          6           0       -5.135613   -1.976437    1.299733
     47          6           0       -7.445695    0.124200    0.174738
     48          6           0       -6.585083    1.362857    0.527057
     49          6           0       -6.409118    1.525234    2.026581
     50          8           0       -6.604953    0.638347    2.849150
     51          8           0       -6.075616    2.806501    2.340795
     52          6           0       -5.844020    3.028112    3.731943
     53          6           0       -4.470005    3.711786   -0.303807
     54          8           0       -4.071260   -3.064656   -0.476886
     55          1           0        2.590912    0.497038   -2.164664
     56          1           0        0.039730   -2.398021   -0.208720
     57          1           0        1.815372   -2.899647    1.417370
     58          1           0        5.195245    0.027745   -2.436380
     59          1           0        6.344027   -3.089383   -0.069941
     60          1           0        5.063519   -2.613968   -1.155258
     61          1           0        7.917848   -2.144512   -1.401488
     62          1           0        6.650554   -1.877865   -2.586381
     63          1           0        6.220799    2.344920   -3.510369
     64          1           0        6.481843    3.625040   -2.353212
     65          1           0        8.581751    2.461438   -3.071333
     66          1           0        8.351419    2.398893   -1.333121
     67          1           0        7.749664    0.188773   -3.365411
     68          1           0        9.052462    0.182394   -2.183910
     69          1           0        4.676630    1.382115    1.507907
     70          1           0        3.479654    1.751322    0.305378
     71          1           0        4.925939    3.426429   -0.274381
     72          1           0        6.365520    2.551410    0.239008
     73          1           0        8.640301   -0.411050    0.166919
     74          1           0        7.789780    1.078685    0.374497
     75          1           0        7.309723   -1.598835    1.476282
     76          1           0        5.670958   -0.755463    5.459709
     77          1           0        6.981546    0.383538    5.089362
     78          1           0        5.282755    0.758767    4.619819
     79          1           0        4.425487   -3.818160    1.275449
     80          1           0        3.801001   -3.105291    2.782616
     81          1           0        5.526634   -3.071574    2.441823
     82          1           0       -0.299512   -1.584800   -2.704316
     83          1           0        0.483694   -0.104483   -3.177069
     84          1           0       -2.373894   -1.517881   -1.471658
     85          1           0        0.060012    2.042732   -1.734183
     86          1           0       -1.746186    3.381156   -0.734404
     87          1           0       -5.030985   -1.430286   -1.920308
     88          1           0       -6.277471    2.470250   -1.943301
     89          1           0       -4.985831    1.457090   -2.534772
     90          1           0       -6.554857   -0.051144   -3.156942
     91          1           0       -7.823088    0.862149   -2.357779
     92          1           0       -6.091307   -3.947679   -1.299918
     93          1           0       -6.237815   -4.212552    0.450242
     94          1           0       -8.436766   -3.731041   -0.711818
     95          1           0       -8.090136   -2.588811    0.569182
     96          1           0       -7.598893   -2.188643   -2.433064
     97          1           0       -8.883897   -1.436957   -1.498285
     98          1           0       -3.239715   -1.028583    1.272167
     99          1           0       -4.434075   -0.028221    2.021434
    100          1           0       -6.132954   -1.799894    1.696499
    101          1           0       -4.650345   -2.767789    1.880275
    102          1           0       -7.574830   -0.538678    1.029392
    103          1           0       -8.464279    0.476945   -0.043906
    104          1           0       -7.170882    2.245309    0.226918
    105          1           0       -5.046233    2.374567    4.098832
    106          1           0       -6.765927    2.873221    4.300944
    107          1           0       -5.526750    4.066442    3.861119
    108          1           0       -5.461296    4.033138    0.029887
    109          1           0       -3.738769    4.320284    0.239029
    110          1           0       -4.388395    3.935250   -1.373609
 ---------------------------------------------------------------------
 Rotational constants (GHZ):           0.1107234           0.0208080           0.0206852
 Standard basis: STO-3G (5D, 7F)
 There are   326 symmetry adapted cartesian basis functions of A   symmetry.
 There are   326 symmetry adapted basis functions of A   symmetry.
   326 basis functions,   978 primitive gaussians,   326 cartesian basis functions
   197 alpha electrons      197 beta electrons
       nuclear repulsion energy      7688.1674571761 Hartrees.
 NAtoms=  110 NActive=  110 NUniq=  110 SFac= 1.00D+00 NAtFMM=   60 NAOKFM=T Big=T
 Integral buffers will be    131072 words long.
 Raffenetti 1 integral format.
 Two-electron integral symmetry is turned on.
 One-electron integrals computed using PRISM.
 NBasis=   326 RedAO= T EigKep=  1.73D-01  NBF=   326
 NBsUse=   326 1.00D-06 EigRej= -1.00D+00 NBFU=   326
 ExpMin= 1.69D-01 ExpMax= 1.31D+02 ExpMxC= 1.31D+02 IAcc=3 IRadAn=         5 AccDes= 0.00D+00
 Harris functional with IExCor=  205 and IRadAn=       5 diagonalized for initial guess.
 HarFok:  IExCor=  205 AccDes= 0.00D+00 IRadAn=         5 IDoV= 1 UseB2=F ITyADJ=14
 ICtDFT=  3500011 ScaDFX=  1.000000  1.000000  1.000000  1.000000
 FoFCou: FMM=F IPFlag=           0 FMFlag=      100000 FMFlg1=        2001
         NFxFlg=           0 DoJE=T BraDBF=F KetDBF=T FulRan=T
         wScrn=  0.000000 ICntrl=       500 IOpCl=  0 I1Cent=   200000004 NGrid=           0
         NMat0=    1 NMatS0=      1 NMatT0=    0 NMatD0=    1 NMtDS0=    0 NMtDT0=    0
 Petite list used in FoFCou.
 Requested convergence on RMS density matrix=1.00D-08 within 128 cycles.
 Requested convergence on MAX density matrix=1.00D-06.
 Requested convergence on             energy=1.00D-06.
 No special actions if energy rises.
 Integral accuracy reduced to 1.0D-05 until final iterations.
 Initial convergence to 1.0D-05 achieved.  Increase integral accuracy.
 SCF Done:  E(RHF) =  -2300.22704301     A.U. after   15 cycles
            NFock= 15  Conv=0.93D-08     -V/T= 2.0092
 Range of M.O.s used for correlation:     1   326
 NBasis=   326 NAE=   197 NBE=   197 NFC=     0 NFV=     0
 NROrb=    326 NOA=   197 NOB=   197 NVA=   129 NVB=   129
          Differentiating once with respect to magnetic field using GIAOs.
          Electric field/nuclear overlap derivatives assumed to be zero.
 FoFCou: FMM=F IPFlag=           0 FMFlag=      100000 FMFlg1=        2001
         NFxFlg=           0 DoJE=F BraDBF=F KetDBF=T FulRan=T
         wScrn=  0.000000 ICntrl=      6100 IOpCl=  0 I1Cent=           7 NGrid=         110
         NMat0=    1 NMatS0=      1 NMatT0=    0 NMatD0=    1 NMtDS0=    0 NMtDT0=    0
 Symmetry not used in FoFCou.
 FoFJK:  IHMeth= 1 ICntrl=    6127 DoSepK=F KAlg= 0 I1Cent=           0 FoldK=F
 IRaf=         1 NMat=       1 IRICut=       1 DoRegI=T DoRafI=F ISym2E= 0 IDoP0=0 IntGTp=1.
          There are     3 degrees of freedom in the 1st order CPHF.  IDoFFX=0 NUNeed=     3.
      3 vectors produced by pass  0 Test12= 8.47D-13 3.33D-08 XBig12= 2.71D+02 2.51D+00.
 AX will form     3 AO Fock derivatives at one time.
      3 vectors produced by pass  1 Test12= 8.47D-13 3.33D-08 XBig12= 8.89D-01 3.22D-01.
      3 vectors produced by pass  2 Test12= 8.47D-13 3.33D-08 XBig12= 2.38D-02 4.28D-02.
      3 vectors produced by pass  3 Test12= 8.47D-13 3.33D-08 XBig12= 5.58D-04 8.27D-03.
      3 vectors produced by pass  4 Test12= 8.47D-13 3.33D-08 XBig12= 2.39D-05 1.43D-03.
      3 vectors produced by pass  5 Test12= 8.47D-13 3.33D-08 XBig12= 5.35D-07 1.53D-04.
      3 vectors produced by pass  6 Test12= 8.47D-13 3.33D-08 XBig12= 2.08D-08 2.71D-05.
      3 vectors produced by pass  7 Test12= 8.47D-13 3.33D-08 XBig12= 5.70D-10 3.21D-06.
      3 vectors produced by pass  8 Test12= 8.47D-13 3.33D-08 XBig12= 1.05D-11 5.20D-07.
      2 vectors produced by pass  9 Test12= 8.47D-13 3.33D-08 XBig12= 1.93D-13 7.10D-08.
 InvSVY:  IOpt=1 It=  1 EMax= 7.11D-15
 Solved reduced A of dimension    29 with     3 vectors.
 Calculating GIAO nuclear magnetic shielding tensors.
 SCF GIAO Magnetic shielding tensor (ppm):
      1  C    Isotropic =   124.2097   Anisotropy =   144.1989
   XX=   130.9334   YX=   -36.4351   ZX=   -13.9952
   XY=   -35.4612   YY=   124.2159   ZY=    90.9135
   XZ=   -10.5950   YZ=    81.0016   ZZ=   117.4797
   Eigenvalues:    32.0266   120.2601   220.3423
      2  C    Isotropic =   120.0343   Anisotropy =   157.3301
   XX=    81.9460   YX=   -26.6796   ZX=   -55.3348
   XY=   -20.3196   YY=   157.2782   ZY=    70.2204
   XZ=   -51.1385   YZ=    58.8614   ZZ=   120.8787
   Eigenvalues:    40.7534    94.4284   224.9210
      3  C    Isotropic =   118.5335   Anisotropy =   157.8518
   XX=    57.7322   YX=   -61.2671   ZX=   -23.5982
   XY=   -59.4656   YY=   151.2407   ZY=    55.6273
   XZ=   -14.0228   YZ=    53.8847   ZZ=   146.6276
   Eigenvalues:    27.5972   104.2352   223.7681
      4  C    Isotropic =   133.7210   Anisotropy =   142.5981
   XX=   133.4986   YX=   -34.1394   ZX=   -15.4967
   XY=   -42.4817   YY=   144.3945   ZY=    78.8483
   XZ=   -10.1786   YZ=    80.0645   ZZ=   123.2699
   Eigenvalues:    50.4204   121.9563   228.7864
      5  C    Isotropic =   109.0635   Anisotropy =   126.2381
   XX=    84.0840   YX=   -17.1016   ZX=   -40.1101
   XY=   -19.1432   YY=   136.0859   ZY=    55.2475
   XZ=   -55.4625   YZ=    47.7663   ZZ=   107.0207
   Eigenvalues:    41.8432    92.1252   193.2223
      6  C    Isotropic =   117.6735   Anisotropy =   139.3150
   XX=    80.9686   YX=   -49.5699   ZX=   -23.0257
   XY=   -52.5455   YY=   146.1204   ZY=    46.1577
   XZ=   -18.6965   YZ=    57.4165   ZZ=   125.9315
   Eigenvalues:    52.0844    90.3859   210.5502
      7  N    Isotropic =   274.5815   Anisotropy =    83.1372
   XX=   323.5412   YX=   -20.6231   ZX=    21.1947
   XY=    -2.4828   YY=   242.9385   ZY=     1.8477
   XZ=    15.8264   YZ=    -8.1170   ZZ=   257.2647
   Eigenvalues:   241.2915   252.4467   330.0063
      8  C    Isotropic =   195.7494   Anisotropy =    12.9402
   XX=   188.3784   YX=     1.9956   ZX=    -3.5504
   XY=     4.2332   YY=   198.9482   ZY=    -7.8434
   XZ=    -0.1257   YZ=    -0.4876   ZZ=   199.9216
   Eigenvalues:   187.4864   195.3855   204.3762
      9  C    Isotropic =   181.1079   Anisotropy =    44.7669
   XX=   190.8435   YX=    16.3230   ZX=    -2.9426
   XY=     6.2441   YY=   170.7936   ZY=   -23.6804
   XZ=   -17.1400   YZ=   -22.3353   ZZ=   181.6866
   Eigenvalues:   152.3930   179.9782   210.9525
     10  C    Isotropic =   190.1717   Anisotropy =    29.4710
   XX=   183.4550   YX=     0.9628   ZX=    -7.5273
   XY=     4.2288   YY=   208.8599   ZY=    -1.7684
   XZ=    -7.6533   YZ=    -5.8378   ZZ=   178.2002
   Eigenvalues:   172.7229   187.9732   209.8190
     11  C    Isotropic =   213.7671   Anisotropy =    19.3569
   XX=   209.3418   YX=    -2.1323   ZX=    -9.0766
   XY=    -2.9417   YY=   216.9287   ZY=     4.8612
   XZ=    -5.3248   YZ=    11.0365   ZZ=   215.0310
   Eigenvalues:   203.8273   210.8024   226.6718
     12  C    Isotropic =   212.8105   Anisotropy =    21.0244
   XX=   205.3138   YX=     4.9822   ZX=    -1.8836
   XY=     3.3900   YY=   225.9942   ZY=     1.8771
   XZ=    -2.6098   YZ=     0.1810   ZZ=   207.1234
   Eigenvalues:   203.0702   208.5345   226.8267
     13  C    Isotropic =   213.6277   Anisotropy =     8.6984
   XX=   214.1512   YX=     2.1321   ZX=    -2.1686
   XY=    -0.3563   YY=   209.1722   ZY=     0.5933
   XZ=    -3.6148   YZ=     3.7554   ZZ=   217.5598
   Eigenvalues:   208.1885   213.2680   219.4267
     14  N    Isotropic =   302.8095   Anisotropy =    54.4109
   XX=   253.2682   YX=     7.1787   ZX=   -19.8585
   XY=    14.6320   YY=   337.6920   ZY=     4.0571
   XZ=   -38.1238   YZ=     3.8218   ZZ=   317.4681
   Eigenvalues:   240.7284   328.6166   339.0834
     15  C    Isotropic =   205.2352   Anisotropy =    34.9970
   XX=   210.0969   YX=     5.6364   ZX=   -14.2719
   XY=     6.4613   YY=   199.7594   ZY=   -16.6825
   XZ=   -11.6343   YZ=   -13.0807   ZZ=   205.8493
   Eigenvalues:   186.8935   200.2456   228.5665
     16  C    Isotropic =   224.1536   Anisotropy =     8.7485
   XX=   223.7297   YX=    -1.8862   ZX=     0.8389
   XY=    -1.7011   YY=   228.2435   ZY=    -2.0437
   XZ=    -3.2381   YZ=    -5.3920   ZZ=   220.4876
   Eigenvalues:   218.3844   224.0905   229.9860
     17  C    Isotropic =   215.2327   Anisotropy =    20.2504
   XX=   212.6609   YX=     6.8631   ZX=    -9.6069
   XY=     4.5425   YY=   216.1959   ZY=    -6.7188
   XZ=    -4.7984   YZ=    -7.2576   ZZ=   216.8413
   Eigenvalues:   207.2144   209.7507   228.7329
     18  C    Isotropic =   210.5277   Anisotropy =    36.7913
   XX=   204.3718   YX=     6.1087   ZX=   -10.5323
   XY=     6.3097   YY=   231.9178   ZY=     6.6734
   XZ=    -5.1653   YZ=    13.3568   ZZ=   195.2935
   Eigenvalues:   187.6329   208.8949   235.0552
     19  C    Isotropic =   199.7042   Anisotropy =    41.8818
   XX=   180.9244   YX=     5.6276   ZX=   -15.4249
   XY=     2.1259   YY=   198.5561   ZY=     6.7044
   XZ=   -17.1241   YZ=    12.3374   ZZ=   219.6321
   Eigenvalues:   173.0391   198.4481   227.6254
     20  C    Isotropic =   212.2304   Anisotropy =    21.1131
   XX=   211.5866   YX=     3.6164   ZX=    -1.1414
   XY=     1.9324   YY=   198.8570   ZY=    -0.8555
   XZ=     0.2692   YZ=    -1.1891   ZZ=   226.2476
   Eigenvalues:   198.2489   212.1365   226.3059
     21  C    Isotropic =   209.0327   Anisotropy =     9.8992
   XX=   212.9897   YX=     1.8328   ZX=     3.1472
   XY=    -0.1981   YY=   201.9184   ZY=     9.8152
   XZ=    -1.5557   YZ=     2.8242   ZZ=   212.1899
   Eigenvalues:   198.8996   212.5663   215.6322
     22  C    Isotropic =    96.3117   Anisotropy =    99.1107
   XX=   149.7158   YX=     3.2636   ZX=    43.7531
   XY=    -2.8390   YY=   156.7066   ZY=    25.5713
   XZ=    40.0960   YZ=     3.5850   ZZ=   -17.4873
   Eigenvalues:   -28.4901   155.0397   162.3855
     23  O    Isotropic =  -134.2156   Anisotropy =   887.3739
   XX=   371.2566   YX=  -234.5440   ZX=   142.5323
   XY=  -224.0702   YY=  -513.9488   ZY=   -26.4829
   XZ=   143.0806   YZ=   -45.5424   ZZ=  -259.9547
   Eigenvalues:  -569.8276  -290.1863   457.3669
     24  O    Isotropic =   284.1248   Anisotropy =   139.0424
   XX=   359.5847   YX=   -19.6734   ZX=   -28.6622
   XY=    24.9576   YY=   241.7992   ZY=  -196.1833
   XZ=    18.9106   YZ=   -61.1877   ZZ=   250.9904
   Eigenvalues:   117.6182   357.9364   376.8197
     25  C    Isotropic =   197.3983   Anisotropy =    57.1698
   XX=   179.7870   YX=    -3.9548   ZX=    -6.3740
   XY=    -3.1611   YY=   187.0779   ZY=    20.8981
   XZ=    -6.1766   YZ=    21.0439   ZZ=   225.3301
   Eigenvalues:   177.4572   179.2263   235.5116
     26  C    Isotropic =   209.9095   Anisotropy =    41.0402
   XX=   194.3514   YX=    -2.5466   ZX=     2.0614
   XY=    -2.2440   YY=   226.9251   ZY=   -17.2579
   XZ=     4.8277   YZ=   -16.5003   ZZ=   208.4521
   Eigenvalues:   193.4139   199.0450   237.2697
     27  C    Isotropic =   206.4568   Anisotropy =    18.4694
   XX=   216.7478   YX=    -6.6720   ZX=     1.8357
   XY=    -5.4564   YY=   199.2874   ZY=     1.2590
   XZ=     1.7773   YZ=     1.1171   ZZ=   203.3352
   Eigenvalues:   196.9436   203.6571   218.7698
     28  C    Isotropic =   119.5614   Anisotropy =   158.0517
   XX=    81.8654   YX=    14.4354   ZX=    62.6966
   XY=    14.5020   YY=    80.6288   ZY=   -37.8379
   XZ=    53.9658   YZ=   -27.1728   ZZ=   196.1901
   Eigenvalues:    39.5639    94.1911   224.9292
     29  C    Isotropic =   121.1866   Anisotropy =   150.9570
   XX=   126.8120   YX=   -16.7490   ZX=    39.0095
   XY=   -17.3748   YY=    34.8552   ZY=   -29.6882
   XZ=    36.2177   YZ=   -17.7011   ZZ=   201.8927
   Eigenvalues:    29.9966   111.7386   221.8246
     30  C    Isotropic =   118.8010   Anisotropy =   157.0407
   XX=    59.9424   YX=   -35.7547   ZX=    58.2571
   XY=   -39.6324   YY=    95.8099   ZY=   -14.4041
   XZ=    47.9706   YZ=   -12.7209   ZZ=   200.6509
   Eigenvalues:    27.0664   105.8418   223.4949
     31  C    Isotropic =   134.4813   Anisotropy =   141.2940
   XX=   136.3771   YX=   -16.1643   ZX=    34.6397
   XY=   -25.0257   YY=    59.9827   ZY=   -27.9564
   XZ=    35.5819   YZ=   -29.9061   ZZ=   207.0841
   Eigenvalues:    52.0042   122.7624   228.6773
     32  C    Isotropic =   109.4516   Anisotropy =   125.6760
   XX=    85.4553   YX=    11.3497   ZX=    44.2997
   XY=    18.1183   YY=    77.3100   ZY=   -29.3460
   XZ=    58.6013   YZ=   -22.2166   ZZ=   165.5894
   Eigenvalues:    42.1769    92.9421   193.2356
     33  C    Isotropic =   119.4587   Anisotropy =   135.4487
   XX=    86.2118   YX=   -27.9977   ZX=    50.1878
   XY=   -32.0657   YY=    91.0967   ZY=   -12.8392
   XZ=    49.7474   YZ=   -24.3324   ZZ=   181.0677
   Eigenvalues:    52.3693    96.2491   209.7578
     34  N    Isotropic =   275.6821   Anisotropy =    82.7585
   XX=   325.2827   YX=   -26.6415   ZX=    -5.4841
   XY=    -9.4759   YY=   252.4211   ZY=     2.5666
   XZ=   -12.5701   YZ=    11.8894   ZZ=   249.3424
   Eigenvalues:   243.1569   253.0349   330.8544
     35  C    Isotropic =   195.3394   Anisotropy =    13.3163
   XX=   188.6582   YX=     1.9096   ZX=     1.7636
   XY=     2.1719   YY=   203.4677   ZY=     5.1894
   XZ=    -2.6900   YZ=    -0.6114   ZZ=   193.8922
   Eigenvalues:   188.2716   193.5296   204.2169
     36  C    Isotropic =   181.3939   Anisotropy =    44.4637
   XX=   190.5613   YX=    14.4561   ZX=    -8.3371
   XY=    15.5311   YY=   198.4229   ZY=     9.8605
   XZ=     8.6208   YZ=     9.0352   ZZ=   155.1976
   Eigenvalues:   152.9631   180.1822   211.0364
     37  C    Isotropic =   180.0857   Anisotropy =    46.0934
   XX=   162.6350   YX=     4.2080   ZX=     6.1286
   XY=    -2.9939   YY=   197.0115   ZY=   -23.1507
   XZ=     2.0932   YZ=   -17.5406   ZZ=   180.6105
   Eigenvalues:   160.4020   169.0404   210.8146
     38  C    Isotropic =   213.7778   Anisotropy =    19.4590
   XX=   209.3983   YX=     3.7570   ZX=     8.9750
   XY=     1.0261   YY=   208.8894   ZY=     0.3608
   XZ=     6.6986   YZ=    -5.9265   ZZ=   223.0457
   Eigenvalues:   203.6655   210.9174   226.7504
     39  C    Isotropic =   212.4710   Anisotropy =    21.6478
   XX=   204.6175   YX=     4.5264   ZX=    -1.0470
   XY=     3.1507   YY=   217.5526   ZY=   -11.0166
   XZ=     0.5990   YZ=    -9.0353   ZZ=   215.2429
   Eigenvalues:   202.6691   207.8410   226.9029
     40  C    Isotropic =   211.9996   Anisotropy =    10.0428
   XX=   214.5606   YX=     2.9741   ZX=     2.6932
   XY=     2.4275   YY=   210.8845   ZY=     2.7186
   XZ=     4.7893   YZ=     3.1171   ZZ=   210.5537
   Eigenvalues:   207.5878   209.7162   218.6948
     41  N    Isotropic =   234.5874   Anisotropy =    25.4906
   XX=   230.1324   YX=   -26.0873   ZX=   -11.6920
   XY=    -2.0150   YY=   241.5523   ZY=    -2.8998
   XZ=    -3.2924   YZ=     0.5436   ZZ=   232.0775
   Eigenvalues:   217.3904   234.7907   251.5812
     42  C    Isotropic =   194.8931   Anisotropy =    49.7794
   XX=   204.6460   YX=    17.9102   ZX=     6.1816
   XY=    25.0350   YY=   204.7885   ZY=    13.3816
   XZ=    -2.0737   YZ=    10.4472   ZZ=   175.2449
   Eigenvalues:   169.8861   186.7140   228.0794
     43  C    Isotropic =   222.9418   Anisotropy =    10.6414
   XX=   224.3476   YX=    -1.1211   ZX=     1.6252
   XY=    -1.5232   YY=   227.7877   ZY=    -5.3039
   XZ=     2.0574   YZ=    -3.7899   ZZ=   216.6902
   Eigenvalues:   214.8851   223.9043   230.0361
     44  C    Isotropic =   215.6946   Anisotropy =    19.4300
   XX=   212.6728   YX=    10.5393   ZX=     2.9908
   XY=     5.5741   YY=   224.0878   ZY=     1.7054
   XZ=     0.7332   YZ=     2.4158   ZZ=   210.3231
   Eigenvalues:   208.2197   210.2161   228.6479
     45  C    Isotropic =   210.9548   Anisotropy =    37.5354
   XX=   203.8370   YX=    10.3512   ZX=     4.3220
   XY=     7.7549   YY=   209.0406   ZY=   -17.1025
   XZ=     0.0877   YZ=   -23.4493   ZZ=   219.9868
   Eigenvalues:   188.6325   208.2535   235.9784
     46  C    Isotropic =   191.7602   Anisotropy =    51.7625
   XX=   160.9704   YX=    13.4460   ZX=     7.4862
   XY=     5.3585   YY=   193.0347   ZY=    13.5237
   XZ=     8.9984   YZ=     6.5537   ZZ=   221.2755
   Eigenvalues:   157.9414   191.0707   226.2686
     47  C    Isotropic =   212.5310   Anisotropy =    21.7010
   XX=   211.5403   YX=     4.0873   ZX=    -1.4688
   XY=     2.2860   YY=   210.9138   ZY=    13.5308
   XZ=    -1.6205   YZ=    13.9822   ZZ=   215.1389
   Eigenvalues:   198.2261   212.3686   226.9984
     48  C    Isotropic =   209.4634   Anisotropy =     9.6195
   XX=   213.3126   YX=     0.1720   ZX=    -3.3511
   XY=     1.1538   YY=   200.0232   ZY=    -0.5156
   XZ=     1.4495   YZ=     6.4335   ZZ=   215.0544
   Eigenvalues:   199.4121   213.1016   215.8764
     49  C    Isotropic =    96.0532   Anisotropy =    99.3219
   XX=   150.4492   YX=   -22.2043   ZX=   -34.7662
   XY=   -26.0609   YY=    76.7130   ZY=   -99.0018
   XZ=   -29.2628   YZ=   -77.6880   ZZ=    60.9975
   Eigenvalues:   -28.7317   154.6235   162.2679
     50  O    Isotropic =  -133.7304   Anisotropy =   887.3316
   XX=   396.5967   YX=  -230.2851   ZX=    -3.6962
   XY=  -222.2675   YY=  -411.1783   ZY=   127.0259
   XZ=   -10.6286   YZ=   152.5094   ZZ=  -386.6096
   Eigenvalues:  -568.8662  -290.1490   457.8240
     51  O    Isotropic =   283.4158   Anisotropy =   138.4796
   XX=   359.9671   YX=    -0.1259   ZX=    21.4017
   XY=    10.9700   YY=   368.7751   ZY=   107.8836
   XZ=   -36.6825   YZ=   -31.1674   ZZ=   121.5052
   Eigenvalues:   115.4052   359.1067   375.7355
     52  C    Isotropic =   197.2025   Anisotropy =    57.4978
   XX=   179.8853   YX=     1.1072   ZX=     8.6073
   XY=     1.6461   YY=   180.8414   ZY=    13.4730
   XZ=     8.0240   YZ=    13.4236   ZZ=   230.8810
   Eigenvalues:   177.1370   178.9362   235.5344
     53  C    Isotropic =   209.9270   Anisotropy =    41.2327
   XX=   194.4448   YX=    -4.6801   ZX=     0.2486
   XY=    -6.0577   YY=   236.1448   ZY=    -4.4626
   XZ=    -2.1110   YZ=    -5.3442   ZZ=   199.1913
   Eigenvalues:   193.3215   199.0440   237.4155
     54  O    Isotropic =     0.2899   Anisotropy =   522.8105
   XX=   188.8348   YX=  -232.4888   ZX=  -113.4908
   XY=  -209.3755   YY=   -75.4322   ZY=    61.5263
   XZ=  -105.3175   YZ=    65.6135   ZZ=  -112.5330
   Eigenvalues:  -200.7596  -147.2010   348.8302
     55  H    Isotropic =    25.5008   Anisotropy =    14.9745
   XX=    34.1910   YX=     1.8886   ZX=     3.9385
   XY=     1.7052   YY=    20.5570   ZY=    -1.2436
   XZ=     4.0445   YZ=    -1.4936   ZZ=    21.7544
   Eigenvalues:    18.6962    22.3224    35.4838
     56  H    Isotropic =    25.6252   Anisotropy =     8.7124
   XX=    29.3771   YX=    -1.2249   ZX=     2.0723
   XY=    -0.4971   YY=    24.1984   ZY=    -3.8598
   XZ=     3.0008   YZ=    -5.7468   ZZ=    23.3002
   Eigenvalues:    18.7582    26.6840    31.4335
     57  H    Isotropic =    26.6321   Anisotropy =     9.7741
   XX=    32.4825   YX=     2.2698   ZX=     1.4627
   XY=     2.1251   YY=    23.3540   ZY=    -3.1814
   XZ=     2.4419   YZ=    -3.8628   ZZ=    24.0599
   Eigenvalues:    19.5017    27.2466    33.1482
     58  H    Isotropic =    31.4162   Anisotropy =     9.0810
   XX=    31.8185   YX=     2.4695   ZX=     3.7748
   XY=     1.7616   YY=    28.1214   ZY=     2.8400
   XZ=     3.2668   YZ=     0.2809   ZZ=    34.3086
   Eigenvalues:    27.1603    29.6180    37.4702
     59  H    Isotropic =    32.1714   Anisotropy =    13.2456
   XX=    29.1191   YX=    -3.6546   ZX=    -1.5768
   XY=    -4.4195   YY=    38.7816   ZY=    -4.2812
   XZ=    -2.9153   YZ=    -3.6181   ZZ=    28.6137
   Eigenvalues:    24.3956    31.1169    41.0019
     60  H    Isotropic =    32.8654   Anisotropy =     9.2168
   XX=    35.3796   YX=     4.7145   ZX=     1.7863
   XY=     1.7349   YY=    32.5857   ZY=     4.3535
   XZ=    -0.2636   YZ=     5.1123   ZZ=    30.6309
   Eigenvalues:    26.5131    33.0732    39.0099
     61  H    Isotropic =    32.3475   Anisotropy =    15.0829
   XX=    36.4651   YX=    -6.6080   ZX=    -2.8016
   XY=    -6.9469   YY=    33.7947   ZY=     0.4553
   XZ=    -2.6859   YZ=     0.3571   ZZ=    26.7827
   Eigenvalues:    25.6456    28.9941    42.4028
     62  H    Isotropic =    32.5415   Anisotropy =    13.5144
   XX=    27.7946   YX=     1.5947   ZX=    -0.4148
   XY=     0.5613   YY=    31.0452   ZY=     5.6014
   XZ=    -1.1421   YZ=     5.1737   ZZ=    38.7846
   Eigenvalues:    26.6997    29.3737    41.5511
     63  H    Isotropic =    31.7254   Anisotropy =    14.6107
   XX=    28.5370   YX=     0.1439   ZX=     1.5320
   XY=    -0.2471   YY=    26.5662   ZY=    -4.0326
   XZ=     2.6777   YZ=    -3.8618   ZZ=    40.0731
   Eigenvalues:    25.4097    28.3006    41.4659
     64  H    Isotropic =    31.7415   Anisotropy =    15.2714
   XX=    27.5460   YX=     0.2717   ZX=    -2.0708
   XY=    -0.5467   YY=    41.0721   ZY=    -3.7261
   XZ=    -1.7157   YZ=    -3.4630   ZZ=    26.6063
   Eigenvalues:    24.5768    28.7253    41.9224
     65  H    Isotropic =    32.6126   Anisotropy =    18.0450
   XX=    34.1906   YX=     4.6831   ZX=    -7.1992
   XY=     4.6906   YY=    31.3628   ZY=    -5.4061
   XZ=    -7.6601   YZ=    -5.7193   ZZ=    32.2845
   Eigenvalues:    25.3138    27.8815    44.6427
     66  H    Isotropic =    32.4951   Anisotropy =    10.7304
   XX=    32.5564   YX=     5.0698   ZX=     3.0640
   XY=     4.8962   YY=    31.7373   ZY=     2.3403
   XZ=     3.3885   YZ=     2.5083   ZZ=    33.1917
   Eigenvalues:    27.1108    30.7259    39.6487
     67  H    Isotropic =    32.5983   Anisotropy =    13.3009
   XX=    27.6084   YX=     0.8247   ZX=    -2.8281
   XY=     0.5141   YY=    29.9240   ZY=     2.8126
   XZ=    -2.9282   YZ=     2.7440   ZZ=    40.2625
   Eigenvalues:    26.4690    29.8604    41.4655
     68  H    Isotropic =    32.4592   Anisotropy =    14.7124
   XX=    41.0087   YX=    -3.0951   ZX=    -3.4502
   XY=    -3.1086   YY=    29.0522   ZY=    -1.2847
   XZ=    -2.8110   YZ=    -1.5094   ZZ=    27.3165
   Eigenvalues:    25.3648    29.7452    42.2674
     69  H    Isotropic =    32.9654   Anisotropy =    10.1316
   XX=    28.8076   YX=    -2.1898   ZX=     0.9357
   XY=    -0.8032   YY=    30.6248   ZY=     0.9989
   XZ=     1.0987   YZ=     1.6738   ZZ=    39.4639
   Eigenvalues:    27.7602    31.4162    39.7198
     70  H    Isotropic =    32.3447   Anisotropy =    13.5935
   XX=    40.2425   YX=    -4.4670   ZX=    -1.3389
   XY=    -1.6931   YY=    32.6063   ZY=     0.6710
   XZ=     0.1097   YZ=     2.7277   ZZ=    24.1853
   Eigenvalues:    23.8553    31.7718    41.4070
     71  H    Isotropic =    31.7830   Anisotropy =    15.5924
   XX=    28.3508   YX=    -4.1388   ZX=    -1.6195
   XY=    -3.7977   YY=    40.7349   ZY=     0.6417
   XZ=    -2.4613   YZ=     2.5456   ZZ=    26.2633
   Eigenvalues:    24.9727    28.1984    42.1779
     72  H    Isotropic =    31.9071   Anisotropy =     9.0658
   XX=    32.4073   YX=     2.3655   ZX=     3.2486
   XY=     3.4290   YY=    31.7901   ZY=     2.4498
   XZ=     3.4066   YZ=     3.1458   ZZ=    31.5238
   Eigenvalues:    28.5629    29.2074    37.9510
     73  H    Isotropic =    32.2098   Anisotropy =    14.7889
   XX=    41.3114   YX=    -2.7174   ZX=     0.9044
   XY=    -2.9037   YY=    26.4304   ZY=    -2.1322
   XZ=     1.9147   YZ=    -2.2498   ZZ=    28.8877
   Eigenvalues:    24.9519    29.6085    42.0691
     74  H    Isotropic =    31.3413   Anisotropy =     9.6175
   XX=    28.5937   YX=     4.2372   ZX=     1.0243
   XY=     4.1381   YY=    34.9051   ZY=     1.4515
   XZ=     2.3688   YZ=     2.0772   ZZ=    30.5250
   Eigenvalues:    26.3595    29.9114    37.7529
     75  H    Isotropic =    31.2031   Anisotropy =    12.2138
   XX=    30.9577   YX=    -5.3979   ZX=     2.3828
   XY=    -3.8029   YY=    31.7767   ZY=    -5.0139
   XZ=     2.6450   YZ=    -4.7090   ZZ=    30.8750
   Eigenvalues:    25.8513    28.4125    39.3456
     76  H    Isotropic =    30.5753   Anisotropy =    11.6631
   XX=    26.8509   YX=     2.1269   ZX=    -2.1892
   XY=     2.0077   YY=    28.5664   ZY=    -3.1043
   XZ=    -1.9473   YZ=    -4.0821   ZZ=    36.3084
   Eigenvalues:    25.4597    27.9155    38.3506
     77  H    Isotropic =    30.5917   Anisotropy =    11.7898
   XX=    31.4237   YX=     2.7739   ZX=     4.8213
   XY=     3.4109   YY=    27.1735   ZY=     2.7852
   XZ=     4.5744   YZ=     2.2799   ZZ=    33.1779
   Eigenvalues:    25.5457    27.7778    38.4516
     78  H    Isotropic =    30.6870   Anisotropy =     7.6597
   XX=    30.3094   YX=    -4.0739   ZX=    -1.5303
   XY=    -4.4084   YY=    30.3648   ZY=     2.6030
   XZ=    -0.4003   YZ=     1.9384   ZZ=    31.3867
   Eigenvalues:    25.9233    30.3442    35.7935
     79  H    Isotropic =    31.8954   Anisotropy =    11.4530
   XX=    28.0684   YX=     1.5657   ZX=     0.3923
   XY=     0.9844   YY=    39.3456   ZY=    -0.0272
   XZ=    -0.5602   YZ=     1.4426   ZZ=    28.2723
   Eigenvalues:    27.8560    28.2995    39.5307
     80  H    Isotropic =    30.7633   Anisotropy =    13.8826
   XX=    30.9534   YX=     3.1913   ZX=    -4.0943
   XY=     2.8860   YY=    27.5866   ZY=    -5.9206
   XZ=    -4.1707   YZ=    -5.4568   ZZ=    33.7500
   Eigenvalues:    24.1472    28.1244    40.0184
     81  H    Isotropic =    30.9368   Anisotropy =    10.6505
   XX=    32.2225   YX=    -0.1955   ZX=     4.7069
   XY=    -0.9637   YY=    30.2837   ZY=    -5.4887
   XZ=     4.7058   YZ=    -4.5631   ZZ=    30.3041
   Eigenvalues:    24.0438    30.7293    38.0371
     82  H    Isotropic =    29.8403   Anisotropy =     9.9313
   XX=    31.1104   YX=     2.6495   ZX=     0.5414
   XY=     4.2365   YY=    31.2993   ZY=     4.3221
   XZ=     1.8506   YZ=     4.4851   ZZ=    27.1112
   Eigenvalues:    24.2073    28.8524    36.4612
     83  H    Isotropic =    29.9569   Anisotropy =    10.1179
   XX=    31.3809   YX=     1.6677   ZX=    -2.1280
   XY=     2.1194   YY=    25.7973   ZY=    -3.3984
   XZ=    -4.2206   YZ=    -3.6483   ZZ=    32.6926
   Eigenvalues:    24.2694    28.8992    36.7022
     84  H    Isotropic =    24.5304   Anisotropy =    15.3067
   XX=    33.2567   YX=     0.2155   ZX=    -4.7859
   XY=    -0.5483   YY=    21.2054   ZY=     0.6368
   XZ=    -4.7888   YZ=     0.6183   ZZ=    19.1291
   Eigenvalues:    17.5758    21.2806    34.7349
     85  H    Isotropic =    25.7814   Anisotropy =     8.3156
   XX=    29.0339   YX=    -2.2490   ZX=    -1.0047
   XY=    -2.1840   YY=    28.7205   ZY=    -0.2538
   XZ=    -2.2745   YZ=     1.4921   ZZ=    19.5898
   Eigenvalues:    19.3066    26.7124    31.3251
     86  H    Isotropic =    26.6918   Anisotropy =     9.4538
   XX=    32.1799   YX=     1.0782   ZX=    -2.7368
   XY=     0.4037   YY=    27.3075   ZY=     0.7588
   XZ=    -3.4634   YZ=     1.3986   ZZ=    20.5879
   Eigenvalues:    19.6150    27.4660    32.9943
     87  H    Isotropic =    30.6179   Anisotropy =     7.3195
   XX=    30.6175   YX=    -0.7712   ZX=    -3.0106
   XY=    -0.4479   YY=    28.5905   ZY=     0.5678
   XZ=    -3.1643   YZ=     3.6156   ZZ=    32.6458
   Eigenvalues:    27.4485    28.9077    35.4975
     88  H    Isotropic =    32.1176   Anisotropy =    13.4201
   XX=    29.3009   YX=    -2.3078   ZX=     3.6126
   XY=    -2.0402   YY=    38.6373   ZY=    -3.6242
   XZ=     5.1384   YZ=    -4.2078   ZZ=    28.4147
   Eigenvalues:    24.2902    30.9984    41.0643
     89  H    Isotropic =    32.7595   Anisotropy =     9.2272
   XX=    34.8991   YX=     2.6640   ZX=    -4.2174
   XY=     1.6732   YY=    27.2891   ZY=    -1.9399
   XZ=    -0.8286   YZ=    -2.5145   ZZ=    36.0902
   Eigenvalues:    26.4516    32.9159    38.9109
     90  H    Isotropic =    32.4021   Anisotropy =    13.5012
   XX=    27.5633   YX=     1.4472   ZX=    -0.2888
   XY=     1.0986   YY=    28.7071   ZY=     2.0694
   XZ=     0.8625   YZ=     2.6939   ZZ=    40.9360
   Eigenvalues:    26.6522    29.1512    41.4030
     91  H    Isotropic =    32.2417   Anisotropy =    15.1757
   XX=    36.8488   YX=    -3.4372   ZX=     6.2253
   XY=    -3.8014   YY=    30.4468   ZY=    -3.4217
   XZ=     6.2912   YZ=    -3.2569   ZZ=    29.4294
   Eigenvalues:    25.5018    28.8644    42.3588
     92  H    Isotropic =    30.6663   Anisotropy =    13.1368
   XX=    28.0848   YX=     0.3779   ZX=    -0.3249
   XY=    -1.6624   YY=    34.2184   ZY=     7.1528
   XZ=    -1.2629   YZ=     6.8998   ZZ=    29.6957
   Eigenvalues:    24.5557    28.0190    39.4242
     93  H    Isotropic =    30.7846   Anisotropy =    13.7624
   XX=    27.6566   YX=     2.0607   ZX=     1.3207
   XY=     0.4131   YY=    37.3189   ZY=    -5.4415
   XZ=     1.7058   YZ=    -6.0323   ZZ=    27.3782
   Eigenvalues:    23.8223    28.5719    39.9595
     94  H    Isotropic =    32.2726   Anisotropy =    18.2991
   XX=    34.7054   YX=     8.4772   ZX=     2.2333
   XY=     8.6786   YY=    36.4515   ZY=     0.9101
   XZ=     2.3425   YZ=     1.0348   ZZ=    25.6609
   Eigenvalues:    24.8728    27.4730    44.4720
     95  H    Isotropic =    32.5054   Anisotropy =    10.1248
   XX=    31.7589   YX=     2.1183   ZX=    -5.1246
   XY=     1.6570   YY=    30.2911   ZY=     0.4762
   XZ=    -5.3680   YZ=     0.1689   ZZ=    35.4662
   Eigenvalues:    27.0973    31.1636    39.2553
     96  H    Isotropic =    32.4346   Anisotropy =    13.3505
   XX=    27.6070   YX=     2.3412   ZX=     2.0182
   XY=     2.0847   YY=    31.0994   ZY=     4.5180
   XZ=     2.0700   YZ=     4.6286   ZZ=    38.5973
   Eigenvalues:    26.5311    29.4377    41.3349
     97  H    Isotropic =    32.3869   Anisotropy =    14.7493
   XX=    41.1139   YX=    -0.2400   ZX=     4.4400
   XY=    -0.7244   YY=    29.6519   ZY=    -0.6528
   XZ=     3.8114   YZ=    -0.3718   ZZ=    26.3948
   Eigenvalues:    25.2851    29.6557    42.2197
     98  H    Isotropic =    31.6726   Anisotropy =    13.4258
   XX=    39.5715   YX=    -2.7046   ZX=     3.6410
   XY=    -1.1535   YY=    27.1737   ZY=    -3.1516
   XZ=     1.0212   YZ=    -5.1717   ZZ=    28.2726
   Eigenvalues:    23.5249    30.8698    40.6231
     99  H    Isotropic =    32.8844   Anisotropy =    10.2720
   XX=    28.8106   YX=    -2.5949   ZX=     0.5916
   XY=    -1.2587   YY=    32.4422   ZY=     4.2836
   XZ=    -0.1592   YZ=     3.8371   ZZ=    37.4004
   Eigenvalues:    27.5454    31.3754    39.7324
    100  H    Isotropic =    31.4395   Anisotropy =     7.9046
   XX=    31.8361   YX=     0.0500   ZX=    -3.2216
   XY=     0.4181   YY=    28.5809   ZY=    -0.0936
   XZ=    -4.0881   YZ=    -1.0264   ZZ=    33.9014
   Eigenvalues:    28.4986    29.1106    36.7092
    101  H    Isotropic =    30.9011   Anisotropy =    14.5726
   XX=    27.2775   YX=    -1.8433   ZX=     2.7926
   XY=    -1.3559   YY=    32.5959   ZY=    -5.7125
   XZ=     4.2787   YZ=    -8.0842   ZZ=    32.8301
   Eigenvalues:    24.7314    27.3559    40.6162
    102  H    Isotropic =    31.5650   Anisotropy =     9.5423
   XX=    28.3833   YX=     2.7516   ZX=    -3.1437
   XY=     1.7785   YY=    32.0170   ZY=    -2.2427
   XZ=    -4.2625   YZ=    -2.8670   ZZ=    34.2947
   Eigenvalues:    26.4072    30.3612    37.9265
    103  H    Isotropic =    32.1645   Anisotropy =    14.7387
   XX=    41.3518   YX=    -2.5011   ZX=     0.6532
   XY=    -3.1542   YY=    29.4514   ZY=     1.7704
   XZ=    -0.0609   YZ=     1.8959   ZZ=    25.6903
   Eigenvalues:    24.8278    29.6755    41.9903
    104  H    Isotropic =    31.1430   Anisotropy =    12.3638
   XX=    31.1307   YX=    -5.8783   ZX=     1.2807
   XY=    -4.6922   YY=    35.9869   ZY=     1.0744
   XZ=     0.1816   YZ=     0.7397   ZZ=    26.3116
   Eigenvalues:    25.7029    28.3407    39.3856
    105  H    Isotropic =    30.6604   Anisotropy =     7.6439
   XX=    30.7690   YX=    -2.2352   ZX=     3.7971
   XY=    -3.1634   YY=    28.2945   ZY=    -0.0887
   XZ=     3.1050   YZ=     0.5355   ZZ=    32.9178
   Eigenvalues:    25.8493    30.3756    35.7564
    106  H    Isotropic =    30.5683   Anisotropy =    11.7237
   XX=    31.0320   YX=    -0.4658   ZX=    -5.4966
   XY=     0.1952   YY=    26.9357   ZY=     1.7472
   XZ=    -5.6911   YZ=     2.2767   ZZ=    33.7373
   Eigenvalues:    25.5339    27.7869    38.3841
    107  H    Isotropic =    30.5262   Anisotropy =    11.7492
   XX=    26.5400   YX=     2.7496   ZX=     0.3806
   XY=     2.5006   YY=    35.1762   ZY=     4.1342
   XZ=     0.2374   YZ=     5.1237   ZZ=    29.8623
   Eigenvalues:    25.4366    27.7830    38.3590
    108  H    Isotropic =    30.9479   Anisotropy =    10.6759
   XX=    32.2326   YX=    -3.1242   ZX=    -3.7912
   XY=    -3.7079   YY=    35.0521   ZY=     1.6459
   XZ=    -3.2454   YZ=     0.7175   ZZ=    25.5592
   Eigenvalues:    24.0398    30.7388    38.0652
    109  H    Isotropic =    30.7216   Anisotropy =    13.9282
   XX=    30.6211   YX=     4.9655   ZX=     1.0391
   XY=     4.8065   YY=    35.7614   ZY=     4.5108
   XZ=     1.3281   YZ=     4.0467   ZZ=    25.7824
   Eigenvalues:    24.1246    28.0332    40.0071
    110  H    Isotropic =    31.8855   Anisotropy =    11.5976
   XX=    27.8851   YX=     0.6316   ZX=    -0.9907
   XY=     0.8088   YY=    34.5553   ZY=    -4.9286
   XZ=     0.1505   YZ=    -6.3412   ZZ=    33.2160
   Eigenvalues:    27.7676    28.2716    39.6172
 End of Minotr F.D. properties file   721 does not exist.
 End of Minotr F.D. properties file   722 does not exist.
 End of Minotr F.D. properties file   788 does not exist.
 Hyperfine terms turned off by default for NAtoms > 100.

 **********************************************************************

            Population analysis using the SCF Density.

 **********************************************************************

 Orbital symmetries:
       Occupied  (A) (A) (A) (A) (A) (A) (A) (A) (A) (A) (A) (A)
                 (A) (A) (A) (A) (A) (A) (A) (A) (A) (A) (A) (A)
                 (A) (A) (A) (A) (A) (A) (A) (A) (A) (A) (A) (A)
                 (A) (A) (A) (A) (A) (A) (A) (A) (A) (A) (A) (A)
                 (A) (A) (A) (A) (A) (A) (A) (A) (A) (A) (A) (A)
                 (A) (A) (A) (A) (A) (A) (A) (A) (A) (A) (A) (A)
                 (A) (A) (A) (A) (A) (A) (A) (A) (A) (A) (A) (A)
                 (A) (A) (A) (A) (A) (A) (A) (A) (A) (A) (A) (A)
                 (A) (A) (A) (A) (A) (A) (A) (A) (A) (A) (A) (A)
                 (A) (A) (A) (A) (A) (A) (A) (A) (A) (A) (A) (A)
                 (A) (A) (A) (A) (A) (A) (A) (A) (A) (A) (A) (A)
                 (A) (A) (A) (A) (A) (A) (A) (A) (A) (A) (A) (A)
                 (A) (A) (A) (A) (A) (A) (A) (A) (A) (A) (A) (A)
                 (A) (A) (A) (A) (A) (A) (A) (A) (A) (A) (A) (A)
                 (A) (A) (A) (A) (A) (A) (A) (A) (A) (A) (A) (A)
                 (A) (A) (A) (A) (A) (A) (A) (A) (A) (A) (A) (A)
                 (A) (A) (A) (A) (A)
       Virtual   (A) (A) (A) (A) (A) (A) (A) (A) (A) (A) (A) (A)
                 (A) (A) (A) (A) (A) (A) (A) (A) (A) (A) (A) (A)
                 (A) (A) (A) (A) (A) (A) (A) (A) (A) (A) (A) (A)
                 (A) (A) (A) (A) (A) (A) (A) (A) (A) (A) (A) (A)
                 (A) (A) (A) (A) (A) (A) (A) (A) (A) (A) (A) (A)
                 (A) (A) (A) (A) (A) (A) (A) (A) (A) (A) (A) (A)
                 (A) (A) (A) (A) (A) (A) (A) (A) (A) (A) (A) (A)
                 (A) (A) (A) (A) (A) (A) (A) (A) (A) (A) (A) (A)
                 (A) (A) (A) (A) (A) (A) (A) (A) (A) (A) (A) (A)
                 (A) (A) (A) (A) (A) (A) (A) (A) (A) (A) (A) (A)
                 (A) (A) (A) (A) (A) (A) (A) (A) (A)
 The electronic state is 1-A.
 Alpha  occ. eigenvalues --  -20.31160 -20.30163 -20.25024 -20.24090 -19.91573
 Alpha  occ. eigenvalues --  -15.47656 -15.33557 -15.32768 -15.29985 -11.17067
 Alpha  occ. eigenvalues --  -11.16026 -11.10863 -11.10131 -11.09970 -11.09196
 Alpha  occ. eigenvalues --  -11.08970 -11.08772 -11.08598 -11.07993 -11.07257
 Alpha  occ. eigenvalues --  -11.07153 -11.07032 -11.06713 -11.06491 -11.06385
 Alpha  occ. eigenvalues --  -11.06081 -11.05874 -11.05689 -11.05544 -11.05474
 Alpha  occ. eigenvalues --  -11.05127 -11.05004 -11.04918 -11.04831 -11.04803
 Alpha  occ. eigenvalues --  -11.04620 -11.04442 -11.03893 -11.03745 -11.03500
 Alpha  occ. eigenvalues --  -11.03435 -11.03313 -11.03293 -11.03032 -11.01117
 Alpha  occ. eigenvalues --  -11.01085 -11.01025 -11.00909 -11.00824 -11.00710
 Alpha  occ. eigenvalues --  -11.00698 -11.00618 -11.00524 -11.00359  -1.38332
 Alpha  occ. eigenvalues --   -1.37372  -1.28212  -1.28025  -1.27164  -1.21052
 Alpha  occ. eigenvalues --   -1.20716  -1.18225  -1.11803  -1.09043  -1.08037
 Alpha  occ. eigenvalues --   -1.06785  -1.06116  -1.04333  -1.03158  -1.00562
 Alpha  occ. eigenvalues --   -1.00032  -0.98609  -0.98152  -0.97401  -0.96431
 Alpha  occ. eigenvalues --   -0.96198  -0.94513  -0.93855  -0.93409  -0.92132
 Alpha  occ. eigenvalues --   -0.91535  -0.91160  -0.90866  -0.89175  -0.87736
 Alpha  occ. eigenvalues --   -0.86138  -0.84437  -0.82834  -0.82379  -0.81394
 Alpha  occ. eigenvalues --   -0.80569  -0.78947  -0.78694  -0.77929  -0.77025
 Alpha  occ. eigenvalues --   -0.76589  -0.74294  -0.73327  -0.72178  -0.71792
 Alpha  occ. eigenvalues --   -0.70883  -0.70255  -0.69134  -0.68917  -0.66808
 Alpha  occ. eigenvalues --   -0.65715  -0.65380  -0.64337  -0.63868  -0.62927
 Alpha  occ. eigenvalues --   -0.62474  -0.61763  -0.61618  -0.61472  -0.60710
 Alpha  occ. eigenvalues --   -0.60612  -0.60011  -0.59621  -0.59096  -0.58831
 Alpha  occ. eigenvalues --   -0.58222  -0.58027  -0.57566  -0.57542  -0.57370
 Alpha  occ. eigenvalues --   -0.56843  -0.56327  -0.56097  -0.55868  -0.55626
 Alpha  occ. eigenvalues --   -0.55042  -0.54911  -0.54278  -0.54068  -0.53978
 Alpha  occ. eigenvalues --   -0.53525  -0.53276  -0.52713  -0.52428  -0.51974
 Alpha  occ. eigenvalues --   -0.51853  -0.51226  -0.50919  -0.50439  -0.50287
 Alpha  occ. eigenvalues --   -0.49771  -0.49654  -0.49215  -0.48794  -0.48539
 Alpha  occ. eigenvalues --   -0.48123  -0.47850  -0.47691  -0.47390  -0.47029
 Alpha  occ. eigenvalues --   -0.46874  -0.46234  -0.45709  -0.45593  -0.45255
 Alpha  occ. eigenvalues --   -0.45154  -0.44739  -0.44413  -0.44180  -0.43960
 Alpha  occ. eigenvalues --   -0.43905  -0.43483  -0.42979  -0.42692  -0.42209
 Alpha  occ. eigenvalues --   -0.42001  -0.41872  -0.41233  -0.41076  -0.40864
 Alpha  occ. eigenvalues --   -0.40677  -0.39763  -0.39430  -0.38684  -0.37906
 Alpha  occ. eigenvalues --   -0.37403  -0.36770  -0.35798  -0.35325  -0.34437
 Alpha  occ. eigenvalues --   -0.33720  -0.33528  -0.32851  -0.32108  -0.31309
 Alpha  occ. eigenvalues --   -0.26346  -0.26145  -0.25428  -0.20828  -0.19644
 Alpha  occ. eigenvalues --   -0.15458  -0.15281
 Alpha virt. eigenvalues --    0.27612   0.27954   0.28293   0.29898   0.30224
 Alpha virt. eigenvalues --    0.30956   0.46842   0.47510   0.48916   0.49208
 Alpha virt. eigenvalues --    0.50089   0.50510   0.50858   0.51095   0.52942
 Alpha virt. eigenvalues --    0.53017   0.54473   0.54729   0.55888   0.56217
 Alpha virt. eigenvalues --    0.56940   0.57749   0.58422   0.58572   0.58751
 Alpha virt. eigenvalues --    0.59582   0.60222   0.60460   0.60682   0.61460
 Alpha virt. eigenvalues --    0.61661   0.62008   0.62173   0.62589   0.63352
 Alpha virt. eigenvalues --    0.63461   0.63699   0.64025   0.64207   0.64521
 Alpha virt. eigenvalues --    0.64694   0.64891   0.65122   0.65348   0.65582
 Alpha virt. eigenvalues --    0.65824   0.65837   0.66476   0.66755   0.66991
 Alpha virt. eigenvalues --    0.67510   0.67735   0.68050   0.68251   0.68591
 Alpha virt. eigenvalues --    0.69089   0.69270   0.69357   0.69715   0.69987
 Alpha virt. eigenvalues --    0.70097   0.70175   0.70951   0.71033   0.71303
 Alpha virt. eigenvalues --    0.71442   0.71697   0.71913   0.72065   0.72690
 Alpha virt. eigenvalues --    0.72979   0.73372   0.73886   0.74044   0.74398
 Alpha virt. eigenvalues --    0.74429   0.74635   0.75161   0.75303   0.75367
 Alpha virt. eigenvalues --    0.75572   0.75671   0.75876   0.76443   0.76502
 Alpha virt. eigenvalues --    0.76824   0.77306   0.77394   0.77606   0.77927
 Alpha virt. eigenvalues --    0.77973   0.78367   0.78659   0.78717   0.79567
 Alpha virt. eigenvalues --    0.79667   0.79965   0.80316   0.80496   0.80693
 Alpha virt. eigenvalues --    0.81121   0.81593   0.81780   0.81978   0.82243
 Alpha virt. eigenvalues --    0.83030   0.83460   0.84147   0.84701   0.85004
 Alpha virt. eigenvalues --    0.85019   0.86863   0.86951   0.87009   0.88268
 Alpha virt. eigenvalues --    0.89007   0.90220   0.91891   0.93037   0.94731
 Alpha virt. eigenvalues --    0.95022   0.95985   0.98611   1.00897   1.01885
 Alpha virt. eigenvalues --    1.11638   1.12686   1.16738   1.17006
          Condensed to atoms (all electrons):
 Mulliken charges:
               1
     1  C   -0.074231
     2  C    0.000784
     3  C   -0.061372
     4  C   -0.089838
     5  C    0.088215
     6  C   -0.014337
     7  N   -0.286994
     8  C    0.018330
     9  C    0.128284
    10  C    0.040693
    11  C   -0.114950
    12  C   -0.105524
    13  C    0.027890
    14  N   -0.291276
    15  C   -0.014623
    16  C   -0.108201
    17  C   -0.101938
    18  C   -0.105280
    19  C   -0.019507
    20  C   -0.110475
    21  C   -0.066328
    22  C    0.319762
    23  O   -0.277621
    24  O   -0.255164
    25  C   -0.055638
    26  C   -0.078761
    27  C   -0.109818
    28  C    0.000035
    29  C   -0.072438
    30  C   -0.060687
    31  C   -0.091554
    32  C    0.088025
    33  C   -0.015660
    34  N   -0.287981
    35  C    0.021217
    36  C    0.128884
    37  C    0.040768
    38  C   -0.115665
    39  C   -0.104800
    40  C    0.028100
    41  N   -0.085571
    42  C   -0.007747
    43  C   -0.110780
    44  C   -0.102159
    45  C   -0.106719
    46  C   -0.012310
    47  C   -0.111601
    48  C   -0.067036
    49  C    0.320490
    50  O   -0.278956
    51  O   -0.253989
    52  C   -0.055667
    53  C   -0.078686
    54  O   -0.454043
    55  H    0.063220
    56  H    0.064103
    57  H    0.058624
    58  H    0.056395
    59  H    0.050159
    60  H    0.055285
    61  H    0.047489
    62  H    0.050212
    63  H    0.053409
    64  H    0.060961
    65  H    0.053006
    66  H    0.050350
    67  H    0.049879
    68  H    0.050806
    69  H    0.062796
    70  H    0.063786
    71  H    0.056303
    72  H    0.050737
    73  H    0.050519
    74  H    0.067606
    75  H    0.064370
    76  H    0.076993
    77  H    0.071657
    78  H    0.074780
    79  H    0.055339
    80  H    0.071822
    81  H    0.074976
    82  H    0.060954
    83  H    0.055875
    84  H    0.090193
    85  H    0.057607
    86  H    0.057086
    87  H    0.086217
    88  H    0.052505
    89  H    0.058474
    90  H    0.053959
    91  H    0.051137
    92  H    0.088818
    93  H    0.080441
    94  H    0.065414
    95  H    0.057168
    96  H    0.056672
    97  H    0.057040
    98  H    0.082937
    99  H    0.071016
   100  H    0.067438
   101  H    0.088776
   102  H    0.065993
   103  H    0.054669
   104  H    0.066805
   105  H    0.075900
   106  H    0.072779
   107  H    0.078870
   108  H    0.074792
   109  H    0.073420
   110  H    0.055910
 Sum of Mulliken charges =  -0.00000
 Mulliken charges with hydrogens summed into heavy atoms:
               1
     1  C   -0.011011
     2  C    0.000784
     3  C    0.002731
     4  C   -0.031214
     5  C    0.088215
     6  C   -0.014337
     7  N   -0.286994
     8  C    0.018330
     9  C    0.128284
    10  C    0.097088
    11  C   -0.009506
    12  C   -0.007823
    13  C    0.027890
    14  N   -0.291276
    15  C    0.099748
    16  C   -0.004845
    17  C   -0.001253
    18  C    0.021302
    19  C    0.087533
    20  C    0.007651
    21  C   -0.001958
    22  C    0.319762
    23  O   -0.277621
    24  O   -0.255164
    25  C    0.167791
    26  C    0.123376
    27  C    0.007011
    28  C    0.000035
    29  C    0.017756
    30  C   -0.003079
    31  C   -0.034468
    32  C    0.088025
    33  C   -0.015660
    34  N   -0.287981
    35  C    0.021217
    36  C    0.128884
    37  C    0.126985
    38  C   -0.004687
    39  C    0.000295
    40  C    0.028100
    41  N   -0.085571
    42  C    0.161512
    43  C    0.011801
    44  C    0.011554
    45  C    0.047234
    46  C    0.143904
    47  C    0.009062
    48  C   -0.000231
    49  C    0.320490
    50  O   -0.278956
    51  O   -0.253989
    52  C    0.171881
    53  C    0.125437
    54  O   -0.454043
 Electronic spatial extent (au):  <R**2>=          52872.4557
 Charge=             -0.0000 electrons
 Dipole moment (field-independent basis, Debye):
    X=             -2.9488    Y=              1.4769    Z=              0.3394  Tot=              3.3154
 Quadrupole moment (field-independent basis, Debye-Ang):
   XX=           -245.4853   YY=           -301.8918   ZZ=           -292.6851
   XY=            -16.2474   XZ=              3.0799   YZ=             -2.0235
 Traceless Quadrupole moment (field-independent basis, Debye-Ang):
   XX=             34.5355   YY=            -21.8710   ZZ=            -12.6644
   XY=            -16.2474   XZ=              3.0799   YZ=             -2.0235
 Octapole moment (field-independent basis, Debye-Ang**2):
  XXX=           -254.3076  YYY=             43.1855  ZZZ=            105.2005  XYY=            -33.0760
  XXY=            -63.0497  XXZ=            -34.3203  XZZ=              9.8923  YZZ=             10.3269
  YYZ=             40.2301  XYZ=            -30.3253
 Hexadecapole moment (field-independent basis, Debye-Ang**3):
 XXXX=         -51670.7348 YYYY=          -6170.0491 ZZZZ=          -5430.2477 XXXY=           -231.2158
 XXXZ=            264.3149 YYYX=           -139.0173 YYYZ=             13.0841 ZZZX=            212.9443
 ZZZY=            138.9183 XXYY=          -9912.6130 XXZZ=          -9939.8103 YYZZ=          -1927.8778
 XXYZ=            -35.2843 YYXZ=           -114.3510 ZZXY=           -123.2116
 N-N= 7.688167457176D+03 E-N=-2.075336829380D+04  KE= 2.279177275394D+03
 ******************************Gaussian NBO Version 3.1******************************
             N A T U R A L   A T O M I C   O R B I T A L   A N D
          N A T U R A L   B O N D   O R B I T A L   A N A L Y S I S
 ******************************Gaussian NBO Version 3.1******************************
       /RESON  / : Allow strongly delocalized NBO set
       /NLMO   / : Form Natural Localized Molecular Orbitals
       /NMR /    : Analyze NMR Sheilding Tensor 

 Analyzing the SCF density

 Job title: pleiokomenine_C_1a                                              

 Storage needed:    355564 in NPA,    438187 in NBO,   2133784 in NLMO ( 104796000 available)
 GSVD:  LWork=     -108884 too small for GESVD, short by      536270 words or      536270 for optimal perf.


 NATURAL POPULATIONS:  Natural atomic orbital occupancies 
                                                          
   NAO  Atom  No  lang   Type(AO)    Occupancy      Energy
 ----------------------------------------------------------
     1    C    1  S      Cor( 1S)     1.99993     -10.93338
     2    C    1  S      Val( 2S)     1.08010      -0.16528
     3    C    1  px     Val( 2p)     0.98002       0.15121
     4    C    1  py     Val( 2p)     0.99713       0.09542
     5    C    1  pz     Val( 2p)     0.99852       0.11129
 
     6    C    2  S      Cor( 1S)     1.99990     -10.94290
     7    C    2  S      Val( 2S)     1.07753      -0.16966
     8    C    2  px     Val( 2p)     0.94889       0.17002
     9    C    2  py     Val( 2p)     0.98616       0.10735
    10    C    2  pz     Val( 2p)     0.97310       0.12915
 
    11    C    3  S      Cor( 1S)     1.99994     -10.93427
    12    C    3  S      Val( 2S)     1.08481      -0.16906
    13    C    3  px     Val( 2p)     0.98002       0.15400
    14    C    3  py     Val( 2p)     0.99006       0.09514
    15    C    3  pz     Val( 2p)     0.97743       0.12556
 
    16    C    4  S      Cor( 1S)     1.99993     -10.92888
    17    C    4  S      Val( 2S)     1.07164      -0.16088
    18    C    4  px     Val( 2p)     0.98274       0.15284
    19    C    4  py     Val( 2p)     1.02309       0.08491
    20    C    4  pz     Val( 2p)     1.00960       0.11174
 
    21    C    5  S      Cor( 1S)     1.99985     -10.97650
    22    C    5  S      Val( 2S)     1.05989      -0.17372
    23    C    5  px     Val( 2p)     0.91369       0.17657
    24    C    5  py     Val( 2p)     0.98679       0.08304
    25    C    5  pz     Val( 2p)     0.92842       0.11592
 
    26    C    6  S      Cor( 1S)     1.99990     -10.93524
    27    C    6  S      Val( 2S)     1.08373      -0.17715
    28    C    6  px     Val( 2p)     0.96356       0.15538
    29    C    6  py     Val( 2p)     0.98898       0.09588
    30    C    6  pz     Val( 2p)     0.98968       0.12531
 
    31    N    7  S      Cor( 1S)     1.99998     -15.26001
    32    N    7  S      Val( 2S)     1.40481      -0.58580
    33    N    7  px     Val( 2p)     1.08015       0.01589
    34    N    7  py     Val( 2p)     1.34224      -0.08013
    35    N    7  pz     Val( 2p)     1.44838      -0.11986
 
    36    C    8  S      Cor( 1S)     1.99996     -10.99889
    37    C    8  S      Val( 2S)     1.10937      -0.22424
    38    C    8  px     Val( 2p)     0.95961       0.10916
    39    C    8  py     Val( 2p)     0.94561       0.12079
    40    C    8  pz     Val( 2p)     0.96516       0.09011
 
    41    C    9  S      Cor( 1S)     1.99996     -11.04316
    42    C    9  S      Val( 2S)     1.11163      -0.24884
    43    C    9  px     Val( 2p)     0.88133       0.12552
    44    C    9  py     Val( 2p)     0.93633       0.08825
    45    C    9  pz     Val( 2p)     0.89932       0.10063
 
    46    C   10  S      Cor( 1S)     1.99993     -11.01127
    47    C   10  S      Val( 2S)     1.09696      -0.21280
    48    C   10  px     Val( 2p)     0.96638       0.09197
    49    C   10  py     Val( 2p)     0.87081       0.12643
    50    C   10  pz     Val( 2p)     0.99164       0.09088
 
    51    C   11  S      Cor( 1S)     1.99994     -10.97434
    52    C   11  S      Val( 2S)     1.10369      -0.20867
    53    C   11  px     Val( 2p)     1.00338       0.08929
    54    C   11  py     Val( 2p)     0.98889       0.09135
    55    C   11  pz     Val( 2p)     0.98932       0.08940
 
    56    C   12  S      Cor( 1S)     1.99996     -10.97306
    57    C   12  S      Val( 2S)     1.09121      -0.19516
    58    C   12  px     Val( 2p)     0.99937       0.09443
    59    C   12  py     Val( 2p)     0.98235       0.09224
    60    C   12  pz     Val( 2p)     1.00079       0.09389
 
    61    C   13  S      Cor( 1S)     1.99998     -10.99938
    62    C   13  S      Val( 2S)     1.10486      -0.22301
    63    C   13  px     Val( 2p)     0.95341       0.11094
    64    C   13  py     Val( 2p)     0.95083       0.10849
    65    C   13  pz     Val( 2p)     0.94075       0.11397
 
    66    N   14  S      Cor( 1S)     1.99999     -15.23279
    67    N   14  S      Val( 2S)     1.42283      -0.57489
    68    N   14  px     Val( 2p)     1.60745      -0.16969
    69    N   14  py     Val( 2p)     1.06541       0.04473
    70    N   14  pz     Val( 2p)     1.18397       0.00138
 
    71    C   15  S      Cor( 1S)     1.99994     -11.00373
    72    C   15  S      Val( 2S)     1.06916      -0.18507
    73    C   15  px     Val( 2p)     0.92238       0.11886
    74    C   15  py     Val( 2p)     0.99317       0.08806
    75    C   15  pz     Val( 2p)     0.97644       0.08853
 
    76    C   16  S      Cor( 1S)     1.99997     -10.97281
    77    C   16  S      Val( 2S)     1.08094      -0.18621
    78    C   16  px     Val( 2p)     0.99117       0.09438
    79    C   16  py     Val( 2p)     0.98085       0.09789
    80    C   16  pz     Val( 2p)     1.02160       0.09097
 
    81    C   17  S      Cor( 1S)     1.99996     -10.97566
    82    C   17  S      Val( 2S)     1.08581      -0.19110
    83    C   17  px     Val( 2p)     1.00396       0.09301
    84    C   17  py     Val( 2p)     0.97728       0.09637
    85    C   17  pz     Val( 2p)     1.00112       0.09238
 
    86    C   18  S      Cor( 1S)     1.99995     -10.96838
    87    C   18  S      Val( 2S)     1.09211      -0.18896
    88    C   18  px     Val( 2p)     1.01757       0.08966
    89    C   18  py     Val( 2p)     0.95669       0.09939
    90    C   18  pz     Val( 2p)     1.00911       0.10607
 
    91    C   19  S      Cor( 1S)     1.99994     -10.99378
    92    C   19  S      Val( 2S)     1.07167      -0.17846
    93    C   19  px     Val( 2p)     1.01078       0.09209
    94    C   19  py     Val( 2p)     0.99481       0.09503
    95    C   19  pz     Val( 2p)     0.88895       0.12174
 
    96    C   20  S      Cor( 1S)     1.99992     -10.97961
    97    C   20  S      Val( 2S)     1.09955      -0.20736
    98    C   20  px     Val( 2p)     0.99049       0.08755
    99    C   20  py     Val( 2p)     1.02011       0.08766
   100    C   20  pz     Val( 2p)     0.96367       0.08976
 
   101    C   21  S      Cor( 1S)     1.99994     -11.00326
   102    C   21  S      Val( 2S)     1.11082      -0.23387
   103    C   21  px     Val( 2p)     0.99764       0.07181
   104    C   21  py     Val( 2p)     1.00634       0.07086
   105    C   21  pz     Val( 2p)     0.96943       0.08651
 
   106    C   22  S      Cor( 1S)     1.99991     -11.10737
   107    C   22  S      Val( 2S)     1.05503      -0.25627
   108    C   22  px     Val( 2p)     0.85883      -0.00179
   109    C   22  py     Val( 2p)     0.81370       0.19084
   110    C   22  pz     Val( 2p)     0.86930       0.10044
 
   111    O   23  S      Cor( 1S)     1.99999     -20.09364
   112    O   23  S      Val( 2S)     1.80825      -1.05356
   113    O   23  px     Val( 2p)     1.30221      -0.13959
   114    O   23  py     Val( 2p)     1.34328      -0.10650
   115    O   23  pz     Val( 2p)     1.85815      -0.32113
 
   116    O   24  S      Cor( 1S)     1.99999     -20.21096
   117    O   24  S      Val( 2S)     1.72993      -1.02340
   118    O   24  px     Val( 2p)     1.80506      -0.34841
   119    O   24  py     Val( 2p)     1.56572      -0.25432
   120    O   24  pz     Val( 2p)     1.16607      -0.06832
 
   121    C   25  S      Cor( 1S)     1.99984     -11.04162
   122    C   25  S      Val( 2S)     1.07688      -0.22319
   123    C   25  px     Val( 2p)     1.03518       0.04463
   124    C   25  py     Val( 2p)     0.99187       0.05484
   125    C   25  pz     Val( 2p)     0.86146       0.07560
 
   126    C   26  S      Cor( 1S)     1.99992     -11.00836
   127    C   26  S      Val( 2S)     1.06520      -0.18878
   128    C   26  px     Val( 2p)     1.04926       0.05639
   129    C   26  py     Val( 2p)     0.89675       0.10777
   130    C   26  pz     Val( 2p)     1.00491       0.07134
 
   131    C   27  S      Cor( 1S)     1.99996     -10.96943
   132    C   27  S      Val( 2S)     1.08180      -0.17385
   133    C   27  px     Val( 2p)     0.99594       0.10466
   134    C   27  py     Val( 2p)     1.01557       0.10146
   135    C   27  pz     Val( 2p)     0.99391       0.10607
 
   136    C   28  S      Cor( 1S)     1.99990     -10.94365
   137    C   28  S      Val( 2S)     1.07762      -0.17066
   138    C   28  px     Val( 2p)     0.95139       0.16556
   139    C   28  py     Val( 2p)     0.95469       0.18241
   140    C   28  pz     Val( 2p)     1.00342       0.05471
 
   141    C   29  S      Cor( 1S)     1.99993     -10.93194
   142    C   29  S      Val( 2S)     1.08637      -0.16590
   143    C   29  px     Val( 2p)     0.97303       0.15405
   144    C   29  py     Val( 2p)     0.99902       0.16267
   145    C   29  pz     Val( 2p)     0.99326       0.05006
 
   146    C   30  S      Cor( 1S)     1.99994     -10.93859
   147    C   30  S      Val( 2S)     1.08342      -0.17232
   148    C   30  px     Val( 2p)     0.97684       0.14947
   149    C   30  py     Val( 2p)     0.97422       0.16655
   150    C   30  pz     Val( 2p)     0.99637       0.04542
 
   151    C   31  S      Cor( 1S)     1.99993     -10.93249
   152    C   31  S      Val( 2S)     1.07072      -0.16462
   153    C   31  px     Val( 2p)     0.98426       0.14612
   154    C   31  py     Val( 2p)     0.98672       0.15944
   155    C   31  pz     Val( 2p)     1.04818       0.03077
 
   156    C   32  S      Cor( 1S)     1.99986     -10.98143
   157    C   32  S      Val( 2S)     1.05959      -0.17853
   158    C   32  px     Val( 2p)     0.91199       0.16918
   159    C   32  py     Val( 2p)     0.96171       0.14544
   160    C   32  pz     Val( 2p)     0.95526       0.04555
 
   161    C   33  S      Cor( 1S)     1.99990     -10.93919
   162    C   33  S      Val( 2S)     1.08191      -0.18026
   163    C   33  px     Val( 2p)     0.96317       0.14941
   164    C   33  py     Val( 2p)     0.96390       0.16431
   165    C   33  pz     Val( 2p)     1.02131       0.04936
 
   166    N   34  S      Cor( 1S)     1.99998     -15.26756
   167    N   34  S      Val( 2S)     1.40287      -0.59283
   168    N   34  px     Val( 2p)     1.08402       0.00656
   169    N   34  py     Val( 2p)     1.05181       0.03353
   170    N   34  pz     Val( 2p)     1.73795      -0.24961
 
   171    C   35  S      Cor( 1S)     1.99996     -11.01672
   172    C   35  S      Val( 2S)     1.11067      -0.24170
   173    C   35  px     Val( 2p)     0.96407       0.09196
   174    C   35  py     Val( 2p)     0.93966       0.10087
   175    C   35  pz     Val( 2p)     0.96317       0.08125
 
   176    C   36  S      Cor( 1S)     1.99996     -11.05503
   177    C   36  S      Val( 2S)     1.11127      -0.26028
   178    C   36  px     Val( 2p)     0.88436       0.11232
   179    C   36  py     Val( 2p)     0.89743       0.08877
   180    C   36  pz     Val( 2p)     0.93547       0.07757
 
   181    C   37  S      Cor( 1S)     1.99991     -11.03879
   182    C   37  S      Val( 2S)     1.12055      -0.26014
   183    C   37  px     Val( 2p)     0.97586       0.06356
   184    C   37  py     Val( 2p)     0.86320       0.09227
   185    C   37  pz     Val( 2p)     0.96748       0.06682
 
   186    C   38  S      Cor( 1S)     1.99994     -10.98575
   187    C   38  S      Val( 2S)     1.10444      -0.22071
   188    C   38  px     Val( 2p)     1.00326       0.07778
   189    C   38  py     Val( 2p)     0.99721       0.08040
   190    C   38  pz     Val( 2p)     0.98136       0.07740
 
   191    C   39  S      Cor( 1S)     1.99996     -10.98814
   192    C   39  S      Val( 2S)     1.09228      -0.21086
   193    C   39  px     Val( 2p)     1.00329       0.07861
   194    C   39  py     Val( 2p)     0.98654       0.07641
   195    C   39  pz     Val( 2p)     0.99056       0.08192
 
   196    C   40  S      Cor( 1S)     1.99998     -11.02260
   197    C   40  S      Val( 2S)     1.10504      -0.24555
   198    C   40  px     Val( 2p)     0.93865       0.09424
   199    C   40  py     Val( 2p)     0.94815       0.09144
   200    C   40  pz     Val( 2p)     0.95821       0.08056
 
   201    N   41  S      Cor( 1S)     1.99999     -15.41514
   202    N   41  S      Val( 2S)     1.40189      -0.65873
   203    N   41  px     Val( 2p)     1.26375      -0.13113
   204    N   41  py     Val( 2p)     1.15834      -0.09498
   205    N   41  pz     Val( 2p)     1.14978      -0.09736
 
   206    C   42  S      Cor( 1S)     1.99991     -11.03334
   207    C   42  S      Val( 2S)     1.08956      -0.23055
   208    C   42  px     Val( 2p)     0.89589       0.09600
   209    C   42  py     Val( 2p)     0.92443       0.06544
   210    C   42  pz     Val( 2p)     1.04672       0.04382
 
   211    C   43  S      Cor( 1S)     1.99997     -10.99761
   212    C   43  S      Val( 2S)     1.07897      -0.20847
   213    C   43  px     Val( 2p)     0.98505       0.07140
   214    C   43  py     Val( 2p)     1.00716       0.06482
   215    C   43  pz     Val( 2p)     1.00994       0.07035
 
   216    C   44  S      Cor( 1S)     1.99996     -10.99466
   217    C   44  S      Val( 2S)     1.08471      -0.20933
   218    C   44  px     Val( 2p)     1.00786       0.07160
   219    C   44  py     Val( 2p)     0.98044       0.07568
   220    C   44  pz     Val( 2p)     0.99679       0.07551
 
   221    C   45  S      Cor( 1S)     1.99994     -10.98646
   222    C   45  S      Val( 2S)     1.09366      -0.20702
   223    C   45  px     Val( 2p)     1.02761       0.06953
   224    C   45  py     Val( 2p)     0.97629       0.08641
   225    C   45  pz     Val( 2p)     0.98351       0.08848
 
   226    C   46  S      Cor( 1S)     1.99992     -11.02591
   227    C   46  S      Val( 2S)     1.09071      -0.22457
   228    C   46  px     Val( 2p)     1.02087       0.06347
   229    C   46  py     Val( 2p)     0.99981       0.05681
   230    C   46  pz     Val( 2p)     0.85049       0.09321
 
   231    C   47  S      Cor( 1S)     1.99992     -10.99515
   232    C   47  S      Val( 2S)     1.09904      -0.22291
   233    C   47  px     Val( 2p)     0.99619       0.06897
   234    C   47  py     Val( 2p)     0.97870       0.07608
   235    C   47  pz     Val( 2p)     1.00152       0.07061
 
   236    C   48  S      Cor( 1S)     1.99995     -11.01443
[...]
  107      26.3280        0.0129      26.3151         0.4773      25.8507
 Sum       29.8474        8.4141      21.4333        -2.9589      32.8063

 Contributions to Isotropic shielding for atom   96 (    32.4346 ppm):
                         Standard Origin              Atomic Origin
 NLMO      Total    Paramagnetic  Diamagnetic   Paramagnetic  Diamagnetic
   89      -0.7185        1.0764      -1.7949        -1.4700       0.7515
   90      -0.0038        1.7656      -1.7694        -0.7507       0.7469
   94      -0.2228        1.6230      -1.8458        -1.0913       0.8685
   97       2.4704       -3.3022       5.7726         1.6568       0.8136
   98      -0.3687        0.9356      -1.3044        -0.3062      -0.0625
  102       0.1647       -1.0861       1.2508        -0.6223       0.7870
  105       1.2097        0.8582       0.3514         0.3286       0.8810
  108      26.2722        0.2375      26.0347         0.4734      25.7988
  109       1.3057        4.8370      -3.5313        -0.4838       1.7895
 Sum       30.1090        6.9450      23.1640        -2.2655      32.3744

 Contributions to Isotropic shielding for atom   97 (    32.3869 ppm):
                         Standard Origin              Atomic Origin
 NLMO      Total    Paramagnetic  Diamagnetic   Paramagnetic  Diamagnetic
   89      -0.4944        0.7052      -1.1996        -1.0286       0.5341
   94      -0.2672        2.3757      -2.6429        -0.9570       0.6898
   97       1.5183       -0.4007       1.9190         0.7466       0.7717
   98      -0.5869        2.8508      -3.4377        -1.6365       1.0496
  102       0.2563       -0.8577       1.1140         0.2685      -0.0122
  105       0.1754        4.2999      -4.1246        -0.7747       0.9500
  108       1.9262        3.6912      -1.7650         0.1509       1.7753
  109      26.5658       -0.6166      27.1824         0.7707      25.7951
  173       0.7593       -0.2442       1.0035         0.8720      -0.1127
 Sum       29.8527       11.8035      18.0492        -1.5882      31.4409

 Contributions to Isotropic shielding for atom   98 (    31.6726 ppm):
                         Standard Origin              Atomic Origin
 NLMO      Total    Paramagnetic  Diamagnetic   Paramagnetic  Diamagnetic
   71      -0.5570       -0.2958      -0.2612        -1.7117       1.1548
   80       0.1396       -0.8306       0.9702        -0.9566       1.0963
   85       2.1467       -0.9919       3.1386         1.3073       0.8394
   89       0.7366       -0.7580       1.4946        -0.1957       0.9323
  100       0.9555       -1.0586       2.0141         0.3053       0.6503
  111      25.3500        0.8218      24.5282         0.2172      25.1328
  112       1.9941       -1.0016       2.9956        -0.0155       2.0095
  114      -0.0589       -2.6239       2.5650        -1.1551       1.0962
  121       0.0799       -1.2826       1.3624        -0.7127       0.7925
  195      -0.0828        1.2772      -1.3601         0.7517      -0.8346
 Sum       30.7038       -6.7439      37.4477        -2.1658      32.8696

 Contributions to Isotropic shielding for atom   99 (    32.8844 ppm):
                         Standard Origin              Atomic Origin
 NLMO      Total    Paramagnetic  Diamagnetic   Paramagnetic  Diamagnetic
   80       0.4306       -0.5856       1.0162         0.0685       0.3621
   85       1.1287        0.9143       0.2144         0.3950       0.7337
   87      -0.0513       -1.0305       0.9792        -0.8898       0.8385
   98       0.2050       -1.1356       1.3406        -0.3772       0.5822
  110       0.2742        2.7995      -2.5253        -0.3843       0.6585
  111       2.4317       -1.2295       3.6612         0.4970       1.9347
  112      25.9454        0.2325      25.7129         0.4604      25.4850
  113       0.1466       -0.9787       1.1253        -0.8238       0.9704
  114       0.2712       -0.9260       1.1972        -0.4252       0.6964
  116      -0.0295       -1.2569       1.2274        -0.5786       0.5490
  118       0.8695       -1.4092       2.2787         0.0429       0.8266
  120       1.6774       -1.0683       2.7457         0.7598       0.9176
  121      -0.1539       -4.2380       4.0841        -1.1272       0.9732
  122       0.8455       -0.6688       1.5142         0.3699       0.4756
  123       0.2666       -1.0235       1.2901        -0.4982       0.7648
  191      -0.8760        1.8995      -2.7755        -0.0145      -0.8615
  193      -0.2119        0.8468      -1.0587         0.1526      -0.3645
 Sum       33.1699       -8.8578      42.0277        -2.3726      35.5425

 Contributions to Isotropic shielding for atom  100 (    31.4395 ppm):
                         Standard Origin              Atomic Origin
 NLMO      Total    Paramagnetic  Diamagnetic   Paramagnetic  Diamagnetic
   83      -0.2971        0.7844      -1.0815        -0.5258       0.2287
   85      -0.2178        1.1612      -1.3790        -0.8006       0.5829
   98       0.0872       -1.0064       1.0935        -0.7851       0.8723
   99      -0.2342        0.6363      -0.8705        -1.1391       0.9049
  100      -0.8323        2.7393      -3.5716        -1.4142       0.5819
  102       0.1658       -0.9956       1.1614        -0.6841       0.8499
  104       0.1048       -1.2107       1.3155        -0.6574       0.7622
  105       0.2673       -1.2363       1.5036        -0.2231       0.4905
  107      -0.2695       -3.4091       3.1397        -0.7983       0.5289
  110       1.1159       -0.4317       1.5476         0.2363       0.8796
  112       0.0563        1.3016      -1.2453        -0.8788       0.9352
  113      26.7005        0.0032      26.6973         1.1326      25.5679
  114       1.5908        2.0547      -0.4639        -0.3121       1.9028
  115       0.1703       -1.0439       1.2142        -0.4320       0.6024
  116      -0.4835       -3.6010       3.1175        -0.5056       0.0222
  121       0.2012       -1.3349       1.5361        -0.7731       0.9743
  191      -0.4692        0.8110      -1.2802         0.4196      -0.8888
 Sum       27.6565       -4.7778      32.4343        -8.1411      35.7976

 Contributions to Isotropic shielding for atom  101 (    30.9012 ppm):
                         Standard Origin              Atomic Origin
 NLMO      Total    Paramagnetic  Diamagnetic   Paramagnetic  Diamagnetic
   71      -0.1816       -0.1319      -0.0496        -1.0347       0.8531
  101       0.2017       -0.6111       0.8128        -0.8204       1.0221
  104      -0.0777       -2.6030       2.5254        -0.8402       0.7625
  107      -0.0105       -1.2571       1.2466        -0.5934       0.5829
  110       1.8619       -2.5630       4.4249         0.8909       0.9710
  111      -0.0787        1.0821      -1.1607        -1.2555       1.1769
  113       0.9972        2.6733      -1.6761        -0.7551       1.7524
  114      25.6924        0.6803      25.0121         0.7849      24.9075
  116      -0.1258       -1.0267       0.9009        -0.3902       0.2644
  121       0.0732       -0.9454       1.0186        -0.5468       0.6200
  195       0.1813        0.4811      -0.2998         1.0020      -0.8208
 Sum       28.5335       -4.2215      32.7550        -3.5584      32.0919

 Contributions to Isotropic shielding for atom  102 (    31.5650 ppm):
                         Standard Origin              Atomic Origin
 NLMO      Total    Paramagnetic  Diamagnetic   Paramagnetic  Diamagnetic
   83      -0.3743        1.0099      -1.3842        -1.1979       0.8236
   85      -0.1635        1.0291      -1.1926        -0.8794       0.7159
   97      -0.2311        1.0123      -1.2434        -0.9572       0.7261
   98       1.5036       -0.3294       1.8330         0.5690       0.9346
  102       0.3880       -1.1440       1.5320        -0.1172       0.5052
  105       0.0736       -1.0976       1.1713        -0.8634       0.9370
  107      -0.4385       -2.8454       2.4069        -0.8012       0.3627
  113      -0.3540       -1.3505       0.9965        -0.2169      -0.1371
  115       1.5942       -0.9955       2.5898         0.7440       0.8502
  116      26.3253       -0.0368      26.3621         0.6790      25.6464
  117       1.0582        5.0141      -3.9559        -0.8502       1.9084
  118      -0.6894        0.7820      -1.4714        -1.7838       1.0944
  119       0.3316        1.4667      -1.1351        -0.0954       0.4270
  120      -0.4606       -0.3931      -0.0674        -1.3393       0.8787
  121       0.3080        0.0832       0.2248        -1.3997       1.7077
 Sum       28.8712        2.2049      26.6663        -8.5093      37.3806

 Contributions to Isotropic shielding for atom  103 (    32.1645 ppm):
                         Standard Origin              Atomic Origin
 NLMO      Total    Paramagnetic  Diamagnetic   Paramagnetic  Diamagnetic
   86      -0.2322        0.9573      -1.1895        -1.0438       0.8116
   88       0.4103       -0.7451       1.1554         0.7621      -0.3518
   94      -0.2206        1.3630      -1.5836        -1.0787       0.8581
   97      -0.2877        1.8341      -2.1219        -1.1053       0.8175
   98       0.7017        2.4636      -1.7619        -0.2843       0.9860
  109       0.0033       -2.4147       2.4180        -0.7791       0.7824
  115       0.7907        2.4230      -1.6323        -0.2756       1.0663
  116       1.6179        4.2507      -2.6327        -0.2820       1.8999
  117      26.7836       -1.0162      27.7998         0.9415      25.8421
  118      -0.2971        1.2333      -1.5304        -0.6363       0.3392
  119      -0.2312        1.6592      -1.8904        -1.3829       1.1517
  120      -0.3146        0.0772      -0.3918        -1.0238       0.7092
  121       0.0078        0.5429      -0.5351        -1.0245       1.0322
 Sum       28.7318       12.6282      16.1035        -7.2126      35.9444

 Contributions to Isotropic shielding for atom  104 (    31.1430 ppm):
                         Standard Origin              Atomic Origin
 NLMO      Total    Paramagnetic  Diamagnetic   Paramagnetic  Diamagnetic
   81      -0.4181        1.1524      -1.5705        -1.1195       0.7014
   82      -0.3110        1.1610      -1.4720        -1.2575       0.9465
   86      -0.6134        2.3055      -2.9190        -1.7192       1.1058
   87       2.0595       -0.4897       2.5492         1.1194       0.9400
   98       0.2703       -1.0019       1.2723         0.0537       0.2166
  115       0.3499        5.0974      -4.7474        -0.7714       1.1213
  117      -0.0604       -1.7116       1.6513        -1.2288       1.1684
  118       0.5875        4.0472      -3.4597        -0.3028       0.8903
  119      26.0027       -1.1039      27.1065         0.4852      25.5175
  122      -0.3032       -0.5824       0.2792        -1.9772       1.6740
  127      -0.1970       -1.1892       0.9922        -0.6104       0.4134
  193      -0.2626       -0.5847       0.3221         0.7391      -1.0017
 Sum       27.1041        7.1000      20.0041        -6.5895      33.6936

 Contributions to Isotropic shielding for atom  105 (    30.6605 ppm):
                         Standard Origin              Atomic Origin
 NLMO      Total    Paramagnetic  Diamagnetic   Paramagnetic  Diamagnetic
  120      -0.1341       -0.4160       0.2819        -1.0425       0.9084
  121       0.1599       -0.5111       0.6710        -1.3642       1.5241
  123       2.6289       -5.1926       7.8215         1.2161       1.4128
  124      25.8378        1.0514      24.7865         0.6821      25.1557
  125       1.2110        1.3440      -0.1329        -0.6639       1.8750
  126       1.8091       -0.9841       2.7932        -0.2358       2.0448
  194      -0.2169       -1.0088       0.7919        -0.7497       0.5329
 Sum       31.2958       -5.7171      37.0129        -2.1580      33.4538

 Contributions to Isotropic shielding for atom  106 (    30.5683 ppm):
                         Standard Origin              Atomic Origin
 NLMO      Total    Paramagnetic  Diamagnetic   Paramagnetic  Diamagnetic
  120      -0.8163        0.2307      -1.0470        -1.7097       0.8934
  121      -0.1241        1.0758      -1.1999        -1.6855       1.5614
  122      -1.2684        0.7315      -1.9999        -2.0496       0.7812
  123       0.0977        3.4838      -3.3861        -1.3707       1.4684
  124       1.7250        0.3258       1.3992        -0.1469       1.8719
  125      26.3970        0.3944      26.0026         1.1615      25.2355
  126       1.2584        3.7059      -2.4476        -0.7834       2.0418
  191       0.3172       -0.9791       1.2963         1.0906      -0.7734
  193       1.4299       -1.3192       2.7491         1.4901      -0.0602
 Sum       29.0163        7.6496      21.3667        -4.0037      33.0200

 Contributions to Isotropic shielding for atom  107 (    30.5262 ppm):
                         Standard Origin              Atomic Origin
 NLMO      Total    Paramagnetic  Diamagnetic   Paramagnetic  Diamagnetic
  121       0.1023        0.2302      -0.1279        -0.9278       1.0301
  123       1.1913        0.0191       1.1722        -0.8844       2.0757
  124       1.9707       -1.2707       3.2413        -0.0253       1.9960
  125       0.7008        3.4661      -2.7653        -1.2844       1.9852
  126      25.9193        0.5237      25.3956         0.7463      25.1730
 Sum       29.8844        2.9684      26.9160        -2.3756      32.2600

 Contributions to Isotropic shielding for atom  108 (    30.9479 ppm):
                         Standard Origin              Atomic Origin
 NLMO      Total    Paramagnetic  Diamagnetic   Paramagnetic  Diamagnetic
   76      -0.3556        0.2059      -0.5615        -1.2096       0.8540
   81      -0.7436        1.6916      -2.4352        -1.4626       0.7190
   82       0.5468        1.2727      -0.7259        -0.6379       1.1847
   92      -0.1465       -1.5665       1.4199        -0.6684       0.5219
  119      -0.1921       -2.1387       1.9466        -0.7812       0.5890
  127      26.0678        0.0327      26.0350         0.6961      25.3717
  128       1.8702        2.3676      -0.4974        -0.1156       1.9858
  129       1.2715        2.6226      -1.3511        -0.5591       1.8306
  190       1.2396       -0.1371       1.3767         1.2418      -0.0022
  193      -0.9322        0.4644      -1.3966         0.3469      -1.2791
 Sum       28.6259        4.8152      23.8107        -3.1494      31.7753

 Contributions to Isotropic shielding for atom  109 (    30.7217 ppm):
                         Standard Origin              Atomic Origin
 NLMO      Total    Paramagnetic  Diamagnetic   Paramagnetic  Diamagnetic
   75      -0.5172        0.4884      -1.0056        -1.2319       0.7147
   76      -0.5319        0.2620      -0.7938        -1.8926       1.3608
   82       1.9493       -2.1290       4.0783         0.7009       1.2484
  127       1.4790        2.5515      -1.0726        -0.4889       1.9679
  128      25.8653        0.4882      25.3770         0.5378      25.3275
  129       1.7467        0.5260       1.2207        -0.0489       1.7956
  193      -0.5918        0.6910      -1.2828         0.2602      -0.8521
 Sum       29.3993        2.8781      26.5212        -2.1634      31.5627

 Contributions to Isotropic shielding for atom  110 (    31.8855 ppm):
                         Standard Origin              Atomic Origin
 NLMO      Total    Paramagnetic  Diamagnetic   Paramagnetic  Diamagnetic
   75      -0.3070        0.7287      -1.0357        -0.9303       0.6233
   76      -0.8835        0.5255      -1.4090        -2.0826       1.1991
   81      -0.4001        0.7895      -1.1896        -0.5913       0.1911
   82       1.5577       -1.4404       2.9981         0.7846       0.7731
   86       0.1434       -0.5876       0.7310        -0.8857       1.0290
   92      -0.1717       -2.1475       1.9759        -0.9115       0.7398
  127       1.6935        3.5268      -1.8333        -0.2199       1.9134
  128       1.9739        0.5627       1.4112         0.0784       1.8955
  129      26.5323        0.5703      25.9620         0.8368      25.6955
 Sum       30.1384        2.5280      27.6105        -3.9215      34.0600
 
 1\1\GINC-PCSN02\SP\RHF\STO-3G\C45H56N4O5\ABENIDD\30-May-2024\0\\# nmr=
 giao hf/sto-3g pop=nbo geom=connectivity\\pleiokomenine_C_1a\\0,1\C,0,
 0.,0.,0.\C,0,1.4009,0.,0.\C,0,2.0938,1.2296,0.\C,0,1.4098,2.4518,-0.01
 54\C,0,0.0264,2.4446,-0.0417\C,0,-0.6631,1.219,-0.0153\N,0,-0.8551,3.5
 582,-0.1016\C,0,-2.1431,1.4996,0.0671\C,0,-2.1168,2.9399,-0.5803\C,0,-
 3.1475,0.6226,-0.6949\C,0,-2.0562,2.7906,-2.1632\C,0,-3.2978,2.0693,-2
 .7024\C,0,-4.1226,1.5349,-1.5154\N,0,-3.7688,-0.2145,0.3343\C,0,-4.992
 7,-0.8894,-0.0716\C,0,-5.9928,-0.0193,-0.8321\C,0,-5.3243,0.7096,-1.99
 76\C,0,-2.5333,1.3337,1.5561\C,0,-3.8436,0.5574,1.5651\C,0,-4.6034,2.8
 068,-0.7371\C,0,-3.4178,3.7207,-0.3232\C,0,-3.6036,4.3119,1.0633\O,0,-
 4.4028,3.9078,1.8992\O,0,-2.8151,5.4106,1.2286\C,0,-2.8972,6.0006,2.52
 55\C,0,-0.3297,4.7731,-0.7049\C,0,2.1659,-1.3038,0.0325\C,0,2.7943,-1.
 6063,1.374\C,0,4.1664,-1.401,1.57\C,0,2.0007,-2.0544,2.4497\C,0,2.5612
 ,-2.3153,3.7059\C,0,3.922,-2.1327,3.8847\C,0,4.7085,-1.6576,2.8209\N,0
 ,4.6888,-2.3727,5.0555\C,0,6.1156,-1.4286,3.3174\C,0,6.0681,-2.4545,4.
 5227\C,0,7.3281,-1.7577,2.4295\C,0,6.3285,-3.9184,3.955\C,0,7.7198,-4.
 0272,3.3148\C,0,8.3504,-2.6203,3.2454\N,0,7.8428,-0.4167,1.9354\C,0,9.
 2678,-0.4516,1.4483\C,0,10.236,-1.2472,2.3019\C,0,9.7102,-2.6576,2.541
 1\C,0,6.2394,0.0894,3.6118\C,0,7.5937,0.5265,3.0695\C,0,8.5301,-2.1841
 ,4.74\C,0,7.202,-2.2329,5.5355\C,0,7.0614,-1.0526,6.4805\O,0,7.7106,-0
 .0165,6.3994\O,0,6.171,-1.3274,7.4721\C,0,5.9466,-0.2451,8.3756\C,0,4.
 1699,-3.3682,5.9814\O,0,7.0803,-0.0057,0.8499\H,0,-0.5624,-0.9283,0.03
 95\H,0,3.1829,1.2369,0.0236\H,0,1.9726,3.3777,-0.0056\H,0,-2.6282,-0.0
 52,-1.3892\H,0,-1.9837,3.776,-2.6411\H,0,-1.1604,2.2457,-2.4862\H,0,-3
 .896,2.7583,-3.312\H,0,-2.9896,1.2563,-3.3715\H,0,-4.7078,-1.7267,-0.7
 22\H,0,-5.4829,-1.3487,0.7953\H,0,-6.8002,-0.652,-1.2193\H,0,-6.4627,0
 .6973,-0.1498\H,0,-4.9946,-0.0329,-2.736\H,0,-6.0578,1.3487,-2.5035\H,
 0,-2.5878,2.2671,2.1152\H,0,-1.7934,0.7232,2.0941\H,0,-3.9007,-0.0967,
 2.4418\H,0,-4.7051,1.2261,1.6023\H,0,-5.2679,3.3933,-1.3881\H,0,-5.230
 8,2.5379,0.1128\H,0,-3.4523,4.5944,-0.9923\H,0,-2.1842,6.8287,2.5664\H
 ,0,-3.9015,6.3985,2.7003\H,0,-2.6268,5.2737,3.2979\H,0,0.1264,4.5834,-
 1.6832\H,0,0.4201,5.2315,-0.0512\H,0,-1.1248,5.5118,-0.8448\H,0,2.9347
 ,-1.2815,-0.7513\H,0,1.5073,-2.1379,-0.244\H,0,4.7902,-1.0117,0.769\H,
 0,0.9296,-2.1882,2.3125\H,0,1.9231,-2.6488,4.5157\H,0,7.0423,-2.2935,1
 .5134\H,0,6.2482,-4.6635,4.757\H,0,5.5723,-4.2072,3.2144\H,0,7.633,-4.
 475,2.3169\H,0,8.3493,-4.7073,3.9025\H,0,9.2212,-0.8946,0.4448\H,0,9.5
 838,0.5926,1.3456\H,0,11.202,-1.3059,1.7869\H,0,10.4262,-0.7317,3.2478
 \H,0,9.6207,-3.1766,1.5779\H,0,10.4379,-3.2253,3.1335\H,0,5.4781,0.659
 8,3.0604\H,0,6.0848,0.3686,4.6528\H,0,8.4042,0.4273,3.7882\H,0,7.5869,
 1.5461,2.6706\H,0,9.0149,-1.2116,4.8157\H,0,9.2366,-2.8716,5.2278\H,0,
 7.2698,-3.1061,6.2025\H,0,5.5872,0.6379,7.8377\H,0,6.8616,-0.0164,8.93
 07\H,0,5.1763,-0.5529,9.0879\H,0,4.9014,-3.588,6.7649\H,0,3.2705,-2.99
 36,6.4818\H,0,3.9255,-4.3105,5.478\\Version=ES64L-G16RevB.01\State=1-A
 \HF=-2300.227043\RMSD=9.278e-09\Dipole=0.7415371,-0.5653357,0.912111\Q
 uadrupole=5.4436271,-0.8878036,-4.5558235,-16.031066,17.9772316,-7.336
 4591\PG=C01 [X(C45H56N4O5)]\\@


 A MAN THINKING OR WORKING IS ALWAYS ALONE, 
 LET HIM BE WHERE HE WILL.

                                    -- THOREAU
 Job cpu time:       0 days  0 hours 10 minutes 11.2 seconds.
 Elapsed time:       0 days  0 hours  1 minutes 42.5 seconds.
 File lengths (MBytes):  RWF=     67 Int=      0 D2E=      0 Chk=     10 Scr=      1
 Normal termination of Gaussian 16 at Thu May 30 09:19:43 2024.
