 Entering Gaussian System, Link 0=g16
 Input=1_pleiokomenine_1a_c_22.gjf
 Output=1_pleiokomenine_1a_c_22.log
 Initial command:
 /opt/gaussian/g16/l1.exe "/data/abenidd/Elvis/pleiokomenine_C/NMR_HF/1a/1_pleiokomenine_1a_c_22/Gau-25416.inp" -scrdir="/data/abenidd/Elvis/pleiokomenine_C/NMR_HF/1a/1_pleiokomenine_1a_c_22/"
 Entering Link 1 = /opt/gaussian/g16/l1.exe PID=     25418.
  
 Copyright (c) 1988-2017, Gaussian, Inc.  All Rights Reserved.
  
 This is part of the Gaussian(R) 16 program.  It is based on
 the Gaussian(R) 09 system (copyright 2009, Gaussian, Inc.),
 the Gaussian(R) 03 system (copyright 2003, Gaussian, Inc.),
 the Gaussian(R) 98 system (copyright 1998, Gaussian, Inc.),
 the Gaussian(R) 94 system (copyright 1995, Gaussian, Inc.),
 the Gaussian 92(TM) system (copyright 1992, Gaussian, Inc.),
 the Gaussian 90(TM) system (copyright 1990, Gaussian, Inc.),
 the Gaussian 88(TM) system (copyright 1988, Gaussian, Inc.),
 the Gaussian 86(TM) system (copyright 1986, Carnegie Mellon
 University), and the Gaussian 82(TM) system (copyright 1983,
 Carnegie Mellon University). Gaussian is a federally registered
 trademark of Gaussian, Inc.
  
 This software contains proprietary and confidential information,
 including trade secrets, belonging to Gaussian, Inc.
  
 This software is provided under written license and may be
 used, copied, transmitted, or stored only in accord with that
 written license.
  
 The following legend is applicable only to US Government
 contracts under FAR:
  
                    RESTRICTED RIGHTS LEGEND
  
 Use, reproduction and disclosure by the US Government is
 subject to restrictions as set forth in subparagraphs (a)
 and (c) of the Commercial Computer Software - Restricted
 Rights clause in FAR 52.227-19.
  
 Gaussian, Inc.
 340 Quinnipiac St., Bldg. 40, Wallingford CT 06492
  
  
 ---------------------------------------------------------------
 Warning -- This program may not be used in any manner that
 competes with the business of Gaussian, Inc. or will provide
 assistance to any competitor of Gaussian, Inc.  The licensee
 of this program is prohibited from giving any competitor of
 Gaussian, Inc. access to this program.  By using this program,
 the user acknowledges that Gaussian, Inc. is engaged in the
 business of creating and licensing software in the field of
 computational chemistry and represents and warrants to the
 licensee that it is not a competitor of Gaussian, Inc. and that
 it will not use this program in any manner prohibited above.
 ---------------------------------------------------------------
  

 Cite this work as:
 Gaussian 16, Revision B.01,
 M. J. Frisch, G. W. Trucks, H. B. Schlegel, G. E. Scuseria, 
 M. A. Robb, J. R. Cheeseman, G. Scalmani, V. Barone, 
 G. A. Petersson, H. Nakatsuji, X. Li, M. Caricato, A. V. Marenich, 
 J. Bloino, B. G. Janesko, R. Gomperts, B. Mennucci, H. P. Hratchian, 
 J. V. Ortiz, A. F. Izmaylov, J. L. Sonnenberg, D. Williams-Young, 
 F. Ding, F. Lipparini, F. Egidi, J. Goings, B. Peng, A. Petrone, 
 T. Henderson, D. Ranasinghe, V. G. Zakrzewski, J. Gao, N. Rega, 
 G. Zheng, W. Liang, M. Hada, M. Ehara, K. Toyota, R. Fukuda, 
 J. Hasegawa, M. Ishida, T. Nakajima, Y. Honda, O. Kitao, H. Nakai, 
 T. Vreven, K. Throssell, J. A. Montgomery, Jr., J. E. Peralta, 
 F. Ogliaro, M. J. Bearpark, J. J. Heyd, E. N. Brothers, K. N. Kudin, 
 V. N. Staroverov, T. A. Keith, R. Kobayashi, J. Normand, 
 K. Raghavachari, A. P. Rendell, J. C. Burant, S. S. Iyengar, 
 J. Tomasi, M. Cossi, J. M. Millam, M. Klene, C. Adamo, R. Cammi, 
 J. W. Ochterski, R. L. Martin, K. Morokuma, O. Farkas, 
 J. B. Foresman, and D. J. Fox, Gaussian, Inc., Wallingford CT, 2016.
 
 ******************************************
 Gaussian 16:  ES64L-G16RevB.01 20-Dec-2017
                30-May-2024 
 ******************************************
 %nprocshared=8
 Will use up to    8 processors via shared memory.
 ----------------------------------------------
 # nmr=giao hf/sto-3g pop=nbo geom=connectivity
 ----------------------------------------------
 1/38=1,57=2,172=1/1;
 2/12=2,17=6,18=5,40=1/2;
 3/6=3,11=9,25=1,30=1/1,2,3,8;
 4//1;
 5/5=2,38=5/2;
 8/6=1,10=90,11=11/1;
 10/13=100,45=16/2;
 6/7=2,8=2,9=2,10=2,28=1,40=1,64=1/1,7;
 99/9=1/99;
 ------------------
 pleiokomenine_C_1a
 ------------------
 Symbolic Z-matrix:
 Charge =  0 Multiplicity = 1
 C                     0.        0.        0. 
 C                     1.4022    0.        0. 
 C                     2.0945    1.2296    0. 
 C                     1.409     2.4528   -0.0099 
 C                     0.0255    2.4442   -0.0082 
 C                    -0.6627    1.2157    0.022 
 N                    -0.8645    3.5565   -0.0301 
 C                    -2.1316    1.5063    0.1992 
 C                    -2.1366    2.9252   -0.474 
 C                    -3.2096    0.641    -0.4524 
 C                    -2.0847    2.749    -2.0598 
 C                    -3.2626    1.9211   -2.5781 
 C                    -4.1217    1.4574   -1.3956 
 N                    -4.0536    0.2187    0.6676 
 C                    -4.9772   -0.8286    0.2931 
 C                    -5.9659   -0.2131   -0.7124 
 C                    -5.2762    0.5403   -1.8663 
 C                    -2.3903    1.3272    1.7204 
 C                    -3.1808    0.019     1.7998 
 C                    -4.6374    2.7522   -0.6729 
 C                    -3.4592    3.6853   -0.2372 
 C                    -3.6743    4.2884    1.1416 
 O                    -4.5774    3.9907    1.9134 
 O                    -2.7809    5.2912    1.3745 
 C                    -2.9012    5.8972    2.6606 
 C                    -0.3709    4.7744   -0.6526 
 C                     2.1572   -1.3103    0.0877 
 C                     2.2109   -1.857     1.4982 
 C                     1.0969   -2.5177    2.0308 
 C                     3.3533   -1.6705    2.3047 
 C                     3.389    -2.1175    3.6341 
 C                     2.2637   -2.7211    4.1673 
 C                     1.1348   -2.9226    3.354 
 N                     2.0425   -3.1664    5.5035 
 C                     0.0859   -3.6548    4.1491 
 C                     0.5589   -3.1715    5.5746 
 C                    -1.4039   -3.326     3.9798 
 C                     0.0543   -1.6838    5.8185 
 C                    -1.4695   -1.5937    5.7529 
 C                    -2.0599   -2.961     5.3462 
 N                    -2.0229   -4.5252    3.2748 
 C                    -3.4628   -4.7706    3.6625 
 C                    -4.1737   -3.4687    3.9666 
 C                    -3.5994   -2.8396    5.2358 
 C                     0.2413   -5.1388    3.7494 
 C                    -1.158    -5.7002    3.6334 
 C                    -1.6409   -3.9529    6.4835 
 C                    -0.0978   -3.9766    6.7096 
 C                     0.4335   -5.3793    6.9346 
 O                    -0.1527   -6.4057    6.6145 
 O                     1.6212   -5.3465    7.5981 
 C                     2.21     -6.6295    7.8122 
 C                     2.8463   -2.5303    6.5371 
 O                    -1.9694   -4.3135    1.9104 
 H                    -0.5582   -0.9307    0.0358 
 H                     3.1821    1.2388    0.0232 
 H                     1.9671    3.3816   -0.0027 
 H                    -2.7643   -0.2209   -0.9682 
 H                    -1.1515    2.2805   -2.3963 
 H                    -2.0981    3.7323   -2.5486 
 H                    -3.8584    2.5177   -3.2801 
 H                    -2.8831    1.0626   -3.1465 
 H                    -4.4617   -1.6921   -0.1437 
 H                    -5.5385   -1.1832    1.165 
 H                    -6.6267    0.4853   -0.1824 
 H                    -6.6103   -0.9993   -1.1223 
 H                    -4.8766   -0.2102   -2.5616 
 H                    -6.0216    1.1168   -2.4269 
 H                    -2.9954    2.131     2.137 
 H                    -1.4866    1.2643    2.3384 
 H                    -2.5334   -0.8566    1.6808 
 H                    -3.7251   -0.0588    2.7455 
 H                    -5.2876    3.3127   -1.3584 
 H                    -5.2752    2.4868    0.1765 
 H                    -3.496     4.5575   -0.908 
 H                    -2.7794    5.1509    3.452 
 H                    -2.1043    6.6393    2.761 
 H                    -3.8644    6.4085    2.7528 
 H                     0.0484    4.5884   -1.6478 
 H                     0.4011    5.2368   -0.0283 
 H                    -1.1758    5.508    -0.7605 
 H                     3.1745   -1.1828   -0.3046 
 H                     1.6878   -2.0493   -0.5753 
 H                     0.2137   -2.7134    1.4274 
 H                     4.225    -1.1617    1.8991 
 H                     4.2815   -1.9593    4.2278 
 H                    -1.5503   -2.488     3.2843 
 H                     0.3894   -1.3238    6.8002 
 H                     0.4802   -0.9761    5.0965 
 H                    -1.8648   -1.2757    6.7262 
 H                    -1.7567   -0.8143    5.0351 
 H                    -3.9247   -5.2988    2.8207 
 H                    -3.482    -5.4317    4.5343 
 H                    -5.2467   -3.6442    4.1003 
 H                    -4.0656   -2.7724    3.1266 
 H                    -4.0719   -3.3112    6.1069 
 H                    -3.9176   -1.7898    5.2629 
 H                     0.7067   -5.2425    2.7589 
 H                     0.8766   -5.7209    4.4196 
 H                    -1.2629   -6.4534    2.8458 
 H                    -1.5112   -6.1156    4.576 
 H                    -2.0495   -4.9474    6.2927 
 H                    -2.1109   -3.6367    7.4258 
 H                     0.0793   -3.4642    7.6677 
 H                     1.5774   -7.2343    8.4692 
 H                     3.1765   -6.481     8.3014 
 H                     2.3796   -7.1392    6.8585 
 H                     2.497    -2.8213    7.5323 
 H                     3.8908   -2.8508    6.4589 
 H                     2.8095   -1.4368    6.476 
 
 Stoichiometry    C45H56N4O5
 Framework group  C1[X(C45H56N4O5)]
 Deg. of freedom   324
 Full point group                 C1      NOp   1
 Largest Abelian subgroup         C1      NOp   1
 Largest concise Abelian subgroup C1      NOp   1
                         Standard orientation:                         
 ---------------------------------------------------------------------
 Center     Atomic      Atomic             Coordinates (Angstroms)
 Number     Number       Type             X           Y           Z
 ---------------------------------------------------------------------
      1          6           0       -1.681489    1.599829   -1.588880
      2          6           0       -1.217570    2.908159   -1.786910
      3          6           0       -1.888046    3.982174   -1.163895
      4          6           0       -3.015589    3.769295   -0.357945
      5          6           0       -3.466017    2.475265   -0.166240
      6          6           0       -2.776986    1.402721   -0.765098
      7          7           0       -4.587242    2.034056    0.594009
      8          6           0       -3.369932    0.117264   -0.245935
      9          6           0       -4.810903    0.667571    0.049472
     10          6           0       -3.482003   -1.130754   -1.120750
     11          6           0       -5.610158    0.798373   -1.326241
     12          6           0       -5.703179   -0.541918   -2.058681
     13          6           0       -4.943278   -1.612100   -1.265816
     14          7           0       -2.784650   -2.166770   -0.355609
     15          6           0       -2.547309   -3.359197   -1.137857
     16          6           0       -3.924095   -3.976309   -1.439572
     17          6           0       -4.934926   -2.965925   -2.015876
     18          6           0       -2.417683   -0.324330    0.899172
     19          6           0       -1.674864   -1.524530    0.307292
     20          6           0       -5.630304   -1.708014    0.142568
     21          6           0       -5.663383   -0.323335    0.870739
     22          6           0       -5.353822   -0.439034    2.354610
     23          8           0       -4.974744   -1.455261    2.923357
     24          8           0       -5.653011    0.722555    3.002074
     25          6           0       -5.369467    0.704720    4.400304
     26          6           0       -5.685985    2.975015    0.741620
     27          6           0        0.043064    3.148513   -2.591668
     28          6           0        1.301602    2.880465   -1.794479
     29          6           0        1.733868    1.562764   -1.599562
     30          6           0        2.023901    3.938223   -1.203096
     31          6           0        3.155201    3.695439   -0.409620
     32          6           0        3.542315    2.387018   -0.179157
     33          6           0        2.831401    1.337251   -0.786664
     34          7           0        4.591429    1.904508    0.657022
     35          6           0        3.493994    0.031611   -0.433441
     36          6           0        4.146693    0.512008    0.920280
     37          6           0        2.659632   -1.228647   -0.165359
     38          6           0        3.036799    0.536998    2.058203
     39          6           0        2.427629   -0.847480    2.273890
     40          6           0        2.990113   -1.837496    1.231313
     41          7           0        2.911856   -2.159793   -1.343330
     42          6           0        2.846104   -3.623867   -0.974535
     43          6           0        1.839765   -3.861505    0.131634
     44          6           0        2.326145   -3.221667    1.431826
     45          6           0        4.392772   -0.303794   -1.644171
     46          6           0        4.271360   -1.794346   -1.868182
     47          6           0        4.532340   -1.894927    1.497987
     48          6           0        5.194997   -0.483871    1.446539
     49          6           0        6.531063   -0.496852    0.728743
     50          8           0        6.897172   -1.372120   -0.045506
     51          8           0        7.295546    0.562625    1.109550
     52          6           0        8.556570    0.645954    0.445106
     53          6           0        5.008172    2.782271    1.740952
     54          8           0        1.961339   -1.912524   -2.315257
     55          1           0       -1.163967    0.751748   -2.027060
     56          1           0       -1.521113    4.998065   -1.293594
     57          1           0       -3.506121    4.612724    0.113440
     58          1           0       -3.011623   -0.968572   -2.100369
     59          1           0       -5.159267    1.536497   -2.001116
     60          1           0       -6.625317    1.172485   -1.137888
     61          1           0       -6.755225   -0.826518   -2.184843
     62          1           0       -5.288412   -0.435181   -3.068977
     63          1           0       -2.005440   -3.139232   -2.065305
     64          1           0       -1.953848   -4.085386   -0.570880
     65          1           0       -4.337699   -4.397770   -0.514033
     66          1           0       -3.806494   -4.814122   -2.136436
     67          1           0       -4.668166   -2.791335   -3.066938
     68          1           0       -5.937471   -3.409921   -2.019889
     69          1           0       -2.957564   -0.646849    1.788163
     70          1           0       -1.704275    0.440967    1.227690
     71          1           0       -0.891056   -1.214508   -0.392347
     72          1           0       -1.234280   -2.145182    1.093002
     73          1           0       -6.664103   -2.057435    0.016091
     74          1           0       -5.140821   -2.472489    0.754687
     75          1           0       -6.713502    0.006761    0.852077
     76          1           0       -4.311437    0.486834    4.576974
     77          1           0       -5.588851    1.697520    4.802871
     78          1           0       -6.007227   -0.024356    4.909611
     79          1           0       -6.004447    3.391685   -0.220565
     80          1           0       -5.396682    3.799731    1.401693
     81          1           0       -6.553280    2.489166    1.199250
     82          1           0        0.052508    4.177649   -2.973562
     83          1           0        0.033157    2.513354   -3.487492
     84          1           0        1.225127    0.725245   -2.070919
     85          1           0        1.698301    4.965454   -1.351521
     86          1           0        3.688670    4.529460    0.030703
     87          1           0        1.583548   -1.010482   -0.208295
     88          1           0        3.469517    0.886023    3.005074
     89          1           0        2.229586    1.246191    1.836920
     90          1           0        2.644412   -1.193819    3.292592
     91          1           0        1.334537   -0.779069    2.198698
     92          1           0        2.577879   -4.162438   -1.890489
     93          1           0        3.843082   -3.950939   -0.663867
     94          1           0        1.692852   -4.935887    0.286956
     95          1           0        0.865405   -3.442112   -0.145586
     96          1           0        3.034101   -3.905659    1.917038
     97          1           0        1.469032   -3.155554    2.113773
     98          1           0        4.032156    0.184115   -2.560872
     99          1           0        5.428322    0.025591   -1.540457
    100          1           0        4.318159   -2.083057   -2.923209
    101          1           0        5.020295   -2.353940   -1.309834
    102          1           0        5.010950   -2.605097    0.820507
    103          1           0        4.707245   -2.308782    2.501453
    104          1           0        5.449883   -0.227075    2.486233
    105          1           0        9.181372   -0.214388    0.704046
    106          1           0        9.059324    1.555114    0.785925
    107          1           0        8.417039    0.713189   -0.638459
    108          1           0        5.698748    2.264857    2.413634
    109          1           0        5.541594    3.652358    1.343177
    110          1           0        4.159614    3.134152    2.338412
 ---------------------------------------------------------------------
 Rotational constants (GHZ):           0.0956489           0.0335638           0.0302453
 Standard basis: STO-3G (5D, 7F)
 There are   326 symmetry adapted cartesian basis functions of A   symmetry.
 There are   326 symmetry adapted basis functions of A   symmetry.
   326 basis functions,   978 primitive gaussians,   326 cartesian basis functions
   197 alpha electrons      197 beta electrons
       nuclear repulsion energy      8165.3326904567 Hartrees.
 NAtoms=  110 NActive=  110 NUniq=  110 SFac= 1.00D+00 NAtFMM=   60 NAOKFM=T Big=T
 Integral buffers will be    131072 words long.
 Raffenetti 1 integral format.
 Two-electron integral symmetry is turned on.
 One-electron integrals computed using PRISM.
 NBasis=   326 RedAO= T EigKep=  1.72D-01  NBF=   326
 NBsUse=   326 1.00D-06 EigRej= -1.00D+00 NBFU=   326
 ExpMin= 1.69D-01 ExpMax= 1.31D+02 ExpMxC= 1.31D+02 IAcc=3 IRadAn=         5 AccDes= 0.00D+00
 Harris functional with IExCor=  205 and IRadAn=       5 diagonalized for initial guess.
 HarFok:  IExCor=  205 AccDes= 0.00D+00 IRadAn=         5 IDoV= 1 UseB2=F ITyADJ=14
 ICtDFT=  3500011 ScaDFX=  1.000000  1.000000  1.000000  1.000000
 FoFCou: FMM=F IPFlag=           0 FMFlag=      100000 FMFlg1=        2001
         NFxFlg=           0 DoJE=T BraDBF=F KetDBF=T FulRan=T
         wScrn=  0.000000 ICntrl=       500 IOpCl=  0 I1Cent=   200000004 NGrid=           0
         NMat0=    1 NMatS0=      1 NMatT0=    0 NMatD0=    1 NMtDS0=    0 NMtDT0=    0
 Petite list used in FoFCou.
 Requested convergence on RMS density matrix=1.00D-08 within 128 cycles.
 Requested convergence on MAX density matrix=1.00D-06.
 Requested convergence on             energy=1.00D-06.
 No special actions if energy rises.
 Integral accuracy reduced to 1.0D-05 until final iterations.
 Initial convergence to 1.0D-05 achieved.  Increase integral accuracy.
 SCF Done:  E(RHF) =  -2300.21450210     A.U. after   16 cycles
            NFock= 16  Conv=0.37D-08     -V/T= 2.0092
 Range of M.O.s used for correlation:     1   326
 NBasis=   326 NAE=   197 NBE=   197 NFC=     0 NFV=     0
 NROrb=    326 NOA=   197 NOB=   197 NVA=   129 NVB=   129
          Differentiating once with respect to magnetic field using GIAOs.
          Electric field/nuclear overlap derivatives assumed to be zero.
 FoFCou: FMM=F IPFlag=           0 FMFlag=      100000 FMFlg1=        2001
         NFxFlg=           0 DoJE=F BraDBF=F KetDBF=T FulRan=T
         wScrn=  0.000000 ICntrl=      6100 IOpCl=  0 I1Cent=           7 NGrid=         110
         NMat0=    1 NMatS0=      1 NMatT0=    0 NMatD0=    1 NMtDS0=    0 NMtDT0=    0
 Symmetry not used in FoFCou.
 FoFJK:  IHMeth= 1 ICntrl=    6127 DoSepK=F KAlg= 0 I1Cent=           0 FoldK=F
 IRaf=         1 NMat=       1 IRICut=       1 DoRegI=T DoRafI=F ISym2E= 0 IDoP0=0 IntGTp=1.
          There are     3 degrees of freedom in the 1st order CPHF.  IDoFFX=0 NUNeed=     3.
      3 vectors produced by pass  0 Test12= 8.47D-13 3.33D-08 XBig12= 1.83D+02 2.08D+00.
 AX will form     3 AO Fock derivatives at one time.
      3 vectors produced by pass  1 Test12= 8.47D-13 3.33D-08 XBig12= 8.09D-01 2.53D-01.
      3 vectors produced by pass  2 Test12= 8.47D-13 3.33D-08 XBig12= 1.90D-02 3.27D-02.
      3 vectors produced by pass  3 Test12= 8.47D-13 3.33D-08 XBig12= 5.22D-04 7.93D-03.
      3 vectors produced by pass  4 Test12= 8.47D-13 3.33D-08 XBig12= 2.13D-05 9.68D-04.
      3 vectors produced by pass  5 Test12= 8.47D-13 3.33D-08 XBig12= 3.97D-07 9.97D-05.
      3 vectors produced by pass  6 Test12= 8.47D-13 3.33D-08 XBig12= 1.13D-08 1.97D-05.
      3 vectors produced by pass  7 Test12= 8.47D-13 3.33D-08 XBig12= 2.91D-10 3.96D-06.
      3 vectors produced by pass  8 Test12= 8.47D-13 3.33D-08 XBig12= 7.19D-12 3.80D-07.
      2 vectors produced by pass  9 Test12= 8.47D-13 3.33D-08 XBig12= 1.47D-13 5.60D-08.
 InvSVY:  IOpt=1 It=  1 EMax= 5.33D-15
 Solved reduced A of dimension    29 with     3 vectors.
 Calculating GIAO nuclear magnetic shielding tensors.
 SCF GIAO Magnetic shielding tensor (ppm):
      1  C    Isotropic =   126.3027   Anisotropy =   149.2010
   XX=   138.1250   YX=    28.6421   ZX=    72.7651
   XY=    27.2509   YY=    64.8871   ZY=   -36.1799
   XZ=    58.5909   YZ=   -25.6937   ZZ=   175.8960
   Eigenvalues:    33.9434   119.1947   225.7700
      2  C    Isotropic =   119.8881   Anisotropy =   157.5066
   XX=    99.6253   YX=   -17.9141   ZX=    90.2312
   XY=   -14.6205   YY=    94.1074   ZY=    -7.2643
   XZ=    78.2958   YZ=    -5.1023   ZZ=   165.9316
   Eigenvalues:    40.3421    94.4297   224.8925
      3  C    Isotropic =   119.8203   Anisotropy =   151.1015
   XX=   134.8939   YX=   -37.7766   ZX=    60.1999
   XY=   -34.5601   YY=    42.6178   ZY=     1.7213
   XZ=    48.8931   YZ=    -5.8507   ZZ=   181.9491
   Eigenvalues:    28.2112   110.6950   220.5546
      4  C    Isotropic =   133.5245   Anisotropy =   143.1005
   XX=   147.5600   YX=    21.9132   ZX=    65.0625
   XY=    14.4567   YY=    78.8652   ZY=   -28.5112
   XZ=    66.3943   YZ=   -32.1876   ZZ=   174.1482
   Eigenvalues:    51.7135   119.9352   228.9248
      5  C    Isotropic =   108.4938   Anisotropy =   128.4683
   XX=    98.5263   YX=    -3.8678   ZX=    69.4449
   XY=    -3.5991   YY=    90.2065   ZY=    -7.3611
   XZ=    78.6941   YZ=    11.0599   ZZ=   136.7487
   Eigenvalues:    40.8045    90.5376   194.1393
      6  C    Isotropic =   117.5202   Anisotropy =   142.7368
   XX=   139.6316   YX=   -12.9954   ZX=    61.0231
   XY=   -17.7228   YY=    52.8107   ZY=     4.8338
   XZ=    61.4125   YZ=    -7.1342   ZZ=   160.1183
   Eigenvalues:    48.9892    90.8933   212.6781
      7  N    Isotropic =   272.6458   Anisotropy =    82.7461
   XX=   302.0824   YX=    26.0076   ZX=   -13.4061
   XY=    45.9846   YY=   262.0367   ZY=    -9.8437
   XZ=   -19.9100   YZ=    -5.9601   ZZ=   253.8184
   Eigenvalues:   240.5784   249.5492   327.8099
      8  C    Isotropic =   198.3848   Anisotropy =    12.9312
   XX=   197.5613   YX=    -7.9996   ZX=    -3.0779
   XY=    -6.4290   YY=   199.0845   ZY=     8.0521
   XZ=     1.1138   YZ=    -0.5561   ZZ=   198.5086
   Eigenvalues:   190.6232   197.5257   207.0056
      9  C    Isotropic =   180.1591   Anisotropy =    43.6254
   XX=   174.1544   YX=     4.1174   ZX=   -19.7512
   XY=    -0.9954   YY=   201.5993   ZY=    12.3508
   XZ=    -5.1524   YZ=    23.6121   ZZ=   164.7236
   Eigenvalues:   151.0083   180.2263   209.2427
     10  C    Isotropic =   189.3565   Anisotropy =    34.2207
   XX=   190.7014   YX=   -16.6983   ZX=     6.9384
   XY=   -16.7678   YY=   194.9746   ZY=    -4.1529
   XZ=    12.8234   YZ=    -0.9186   ZZ=   182.3935
   Eigenvalues:   172.0646   183.8346   212.1703
     11  C    Isotropic =   212.7787   Anisotropy =    20.8333
   XX=   210.2884   YX=     0.7732   ZX=     9.3078
   XY=    -2.0345   YY=   208.6295   ZY=     4.1966
   XZ=    12.4848   YZ=    -3.5644   ZZ=   219.4181
   Eigenvalues:   202.9531   208.7154   226.6675
     12  C    Isotropic =   214.4105   Anisotropy =    19.5458
   XX=   208.6146   YX=    -8.4885   ZX=     4.9835
   XY=    -7.6284   YY=   221.8730   ZY=    -4.1392
   XZ=     5.6671   YZ=    -1.8747   ZZ=   212.7437
   Eigenvalues:   203.3101   212.4803   227.4410
     13  C    Isotropic =   210.8430   Anisotropy =     7.6242
   XX=   209.3085   YX=     2.7022   ZX=    -0.5603
   XY=     1.4604   YY=   211.7835   ZY=     4.4800
   XZ=     2.4992   YZ=     2.6974   ZZ=   211.4371
   Eigenvalues:   207.5464   209.0568   215.9258
     14  N    Isotropic =   299.5906   Anisotropy =    59.3490
   XX=   301.1445   YX=   -19.3423   ZX=    38.9498
   XY=   -22.7047   YY=   321.3395   ZY=    15.5998
   XZ=    40.2562   YZ=     5.0772   ZZ=   276.2878
   Eigenvalues:   241.6974   317.9179   339.1566
     15  C    Isotropic =   202.0858   Anisotropy =    38.5175
   XX=   193.2602   YX=     0.5324   ZX=    -1.6960
   XY=    -0.9113   YY=   218.9270   ZY=    17.5494
   XZ=    -1.1907   YZ=    16.9132   ZZ=   194.0702
   Eigenvalues:   185.0769   193.4163   227.7642
     16  C    Isotropic =   219.3077   Anisotropy =    11.3571
   XX=   223.8777   YX=     1.7206   ZX=     5.6232
   XY=     1.0815   YY=   222.5055   ZY=    -1.3855
   XZ=     6.2898   YZ=     3.0593   ZZ=   211.5398
   Eigenvalues:   209.1287   221.9153   226.8791
     17  C    Isotropic =   213.9316   Anisotropy =    22.6002
   XX=   206.8919   YX=    -1.6920   ZX=     3.7192
   XY=    -4.8133   YY=   225.3415   ZY=     9.0657
   XZ=     1.9303   YZ=     7.3385   ZZ=   209.5614
   Eigenvalues:   202.5254   210.2710   228.9984
     18  C    Isotropic =   209.2666   Anisotropy =    32.3375
   XX=   207.6433   YX=   -15.8525   ZX=    16.9632
   XY=    -9.6169   YY=   215.2168   ZY=    -0.5206
   XZ=    20.3372   YZ=     1.6507   ZZ=   204.9398
   Eigenvalues:   184.6986   212.2763   230.8250
     19  C    Isotropic =   200.0826   Anisotropy =    41.0157
   XX=   207.8376   YX=     2.2092   ZX=    21.8603
   XY=    10.4619   YY=   200.0738   ZY=    15.6056
   XZ=    16.1634   YZ=    13.1332   ZZ=   192.3365
   Eigenvalues:   176.0484   196.7730   227.4265
     20  C    Isotropic =   212.2057   Anisotropy =    20.3709
   XX=   205.6773   YX=     5.3914   ZX=    -8.6846
   XY=     3.3245   YY=   210.3608   ZY=     6.5809
   XZ=    -8.4500   YZ=     6.6297   ZZ=   220.5791
   Eigenvalues:   197.9478   212.8830   225.7863
     21  C    Isotropic =   208.1666   Anisotropy =    10.6189
   XX=   205.9363   YX=     6.2802   ZX=    -0.4801
   XY=     5.0832   YY=   204.0571   ZY=    -6.1051
   XZ=    -1.4095   YZ=     2.7998   ZZ=   214.5063
   Eigenvalues:   199.2098   210.0441   215.2458
     22  C    Isotropic =    96.8947   Anisotropy =    98.2361
   XX=   156.7833   YX=     4.5322   ZX=     7.3422
   XY=     1.3947   YY=   114.1586   ZY=   -93.7072
   XZ=    -0.4400   YZ=   -71.8874   ZZ=    19.7421
   Eigenvalues:   -28.4677   156.7663   162.3854
     23  O    Isotropic =  -135.9941   Anisotropy =   888.7559
   XX=   352.5266   YX=   280.7343   ZX=  -120.7216
   XY=   286.4566   YY=  -438.9503   ZY=    62.2123
   XZ=  -131.0752   YZ=    71.9585   ZZ=  -321.5585
   Eigenvalues:  -573.3706  -291.1215   456.5098
     24  O    Isotropic =   284.6115   Anisotropy =   138.8043
   XX=   345.2157   YX=     0.3763   ZX=   -68.0353
   XY=    27.2557   YY=   347.0307   ZY=   149.1176
   XZ=   -43.0910   YZ=     6.1007   ZZ=   161.5880
   Eigenvalues:   119.0495   357.6372   377.1477
     25  C    Isotropic =   197.4827   Anisotropy =    56.8917
   XX=   180.7938   YX=    -0.0419   ZX=     7.9170
   XY=     0.5725   YY=   177.4772   ZY=     3.1090
   XZ=     7.5478   YZ=     2.4829   ZZ=   234.1773
   Eigenvalues:   177.3342   179.7035   235.4106
     26  C    Isotropic =   209.8623   Anisotropy =    42.3300
   XX=   217.2080   YX=   -21.5165   ZX=    -5.3494
   XY=   -21.9690   YY=   212.8357   ZY=     4.7967
   XZ=    -6.6589   YZ=     2.2589   ZZ=   199.5433
   Eigenvalues:   192.8182   198.6865   238.0823
     27  C    Isotropic =   206.4939   Anisotropy =    14.9189
   XX=   216.4301   YX=    -0.3477   ZX=     0.1507
   XY=    -0.3672   YY=   200.4453   ZY=    -5.3403
   XZ=    -0.0558   YZ=    -3.5761   ZZ=   202.6063
   Eigenvalues:   196.9352   206.1066   216.4398
     28  C    Isotropic =   119.7092   Anisotropy =   158.3966
   XX=   105.8208   YX=    17.5991   ZX=   -84.0621
   XY=    13.4788   YY=    92.9642   ZY=    -4.2916
   XZ=   -89.4842   YZ=    -5.0051   ZZ=   160.3426
   Eigenvalues:    40.2811    93.5395   225.3069
     29  C    Isotropic =   123.3734   Anisotropy =   153.2278
   XX=   133.1981   YX=   -18.6109   ZX=   -72.0187
   XY=   -25.2755   YY=    63.5257   ZY=   -35.0850
   XZ=   -63.3371   YZ=   -36.8341   ZZ=   173.3964
   Eigenvalues:    32.0616   112.5334   225.5253
     30  C    Isotropic =   119.4008   Anisotropy =   151.2536
   XX=   136.1593   YX=    28.3843   ZX=   -58.3997
   XY=    29.3222   YY=    39.0154   ZY=     5.7168
   XZ=   -51.7739   YZ=     4.4322   ZZ=   183.0276
   Eigenvalues:    28.2099   109.7559   220.2365
     31  C    Isotropic =   133.9426   Anisotropy =   142.5096
   XX=   144.4477   YX=   -20.9304   ZX=   -64.0103
   XY=   -18.3094   YY=    79.3323   ZY=   -23.0179
   XZ=   -65.5208   YZ=   -34.1178   ZZ=   178.0478
   Eigenvalues:    52.6025   120.2762   228.9490
     32  C    Isotropic =   109.0869   Anisotropy =   126.7699
   XX=   102.6400   YX=    16.9151   ZX=   -72.4150
   XY=     3.2415   YY=    92.1553   ZY=    -3.7259
   XZ=   -75.1728   YZ=    -2.4742   ZZ=   132.4655
   Eigenvalues:    41.5864    92.0742   193.6002
     33  C    Isotropic =   118.7221   Anisotropy =   138.0166
   XX=   130.9529   YX=     5.4332   ZX=   -58.5773
   XY=    14.3832   YY=    52.1603   ZY=     3.3612
   XZ=   -50.9940   YZ=     4.1821   ZZ=   173.0530
   Eigenvalues:    49.6884    95.7447   210.7331
     34  N    Isotropic =   273.7811   Anisotropy =    81.3964
   XX=   268.8340   YX=    -9.1550   ZX=    30.3098
   XY=   -21.9612   YY=   268.1234   ZY=   -41.9433
   XZ=    21.3367   YZ=   -29.5481   ZZ=   284.3858
   Eigenvalues:   238.7328   254.5651   328.0453
     35  C    Isotropic =   196.7205   Anisotropy =    16.9824
   XX=   200.9782   YX=     3.9342   ZX=    -1.7406
   XY=     9.2767   YY=   199.1141   ZY=     5.0382
   XZ=     1.5597   YZ=     9.1945   ZZ=   190.0691
   Eigenvalues:   185.3854   196.7339   208.0421
     36  C    Isotropic =   181.6803   Anisotropy =    43.2352
   XX=   173.4556   YX=    21.2429   ZX=     5.9985
   XY=     8.8852   YY=   204.3311   ZY=    -0.1179
   XZ=    19.9931   YZ=    -7.7391   ZZ=   167.2541
   Eigenvalues:   153.7569   180.7802   210.5037
     37  C    Isotropic =   179.2022   Anisotropy =    48.1415
   XX=   170.4843   YX=    -3.1088   ZX=    -4.0786
   XY=    -1.7926   YY=   182.5934   ZY=    29.8592
   XZ=    -9.9107   YZ=    23.3432   ZZ=   184.5289
   Eigenvalues:   156.2300   170.0800   211.2966
     38  C    Isotropic =   213.9709   Anisotropy =    19.4646
   XX=   216.2794   YX=    -1.8277   ZX=   -12.4801
   XY=     5.1715   YY=   209.5273   ZY=    -0.2921
   XZ=    -8.7712   YZ=    -0.5830   ZZ=   216.1059
   Eigenvalues:   205.3808   209.5846   226.9473
     39  C    Isotropic =   212.4163   Anisotropy =    20.6098
   XX=   208.6549   YX=     1.3413   ZX=    -6.7544
   XY=    -1.2621   YY=   219.3850   ZY=    10.4341
   XZ=    -6.2433   YZ=     9.4358   ZZ=   209.2091
   Eigenvalues:   199.5590   211.5338   226.1562
     40  C    Isotropic =   212.0275   Anisotropy =     9.3930
   XX=   210.4280   YX=     4.3161   ZX=     2.3053
   XY=     3.4128   YY=   215.8151   ZY=    -2.8427
   XZ=     3.0692   YZ=    -3.9607   ZZ=   209.8396
   Eigenvalues:   205.0026   212.7905   218.2895
     41  N    Isotropic =   229.6963   Anisotropy =    27.4352
   XX=   236.3839   YX=    12.9140   ZX=     5.7771
   XY=    -3.9288   YY=   215.5466   ZY=     3.7590
   XZ=     9.1960   YZ=    17.5811   ZZ=   237.1585
   Eigenvalues:   211.0909   230.0116   247.9865
     42  C    Isotropic =   191.4656   Anisotropy =    54.0027
   XX=   172.1597   YX=     4.3770   ZX=    -2.7768
   XY=     3.5646   YY=   224.6311   ZY=   -11.9026
   XZ=     6.3121   YZ=   -10.8956   ZZ=   177.6059
   Eigenvalues:   170.4459   176.4835   227.4674
     43  C    Isotropic =   220.9139   Anisotropy =     5.6844
   XX=   219.0574   YX=     3.2086   ZX=    -1.3182
   XY=     4.7886   YY=   221.1870   ZY=     2.7234
   XZ=    -3.4572   YZ=     2.4687   ZZ=   222.4974
   Eigenvalues:   214.4723   223.5659   224.7036
     44  C    Isotropic =   214.3125   Anisotropy =    25.3907
   XX=   210.0236   YX=    10.6456   ZX=    -1.0047
   XY=    10.5261   YY=   225.9568   ZY=     1.7529
   XZ=    -0.9846   YZ=    -1.0635   ZZ=   206.9570
   Eigenvalues:   204.3271   207.3707   231.2396
     45  C    Isotropic =   211.0162   Anisotropy =    38.0174
   XX=   202.3925   YX=   -14.0286   ZX=   -19.0959
   XY=    -5.7490   YY=   217.2771   ZY=     8.6700
   XZ=   -17.7214   YZ=     9.6474   ZZ=   213.3790
   Eigenvalues:   188.4267   208.2608   236.3611
     46  C    Isotropic =   187.7113   Anisotropy =    62.0769
   XX=   213.0939   YX=    12.0016   ZX=   -27.5944
   XY=    21.0177   YY=   179.6328   ZY=     5.6341
   XZ=   -22.3211   YZ=    -4.7673   ZZ=   170.4072
   Eigenvalues:   156.2664   177.7715   229.0959
     47  C    Isotropic =   210.6761   Anisotropy =    25.4900
   XX=   224.2195   YX=     7.7901   ZX=     1.4208
   XY=     7.0244   YY=   211.6728   ZY=    -4.5386
   XZ=     2.0324   YZ=    -6.2469   ZZ=   196.1359
   Eigenvalues:   193.9170   210.4418   227.6694
     48  C    Isotropic =   209.0182   Anisotropy =    11.6107
   XX=   215.7730   YX=     0.9554   ZX=    -1.8279
   XY=    -7.2543   YY=   206.3854   ZY=    -4.1903
   XZ=    -2.6555   YZ=    -7.2368   ZZ=   204.8962
   Eigenvalues:   199.0302   211.2658   216.7587
     49  C    Isotropic =    96.5737   Anisotropy =    98.6286
   XX=    19.4019   YX=   -72.0805   ZX=    21.8297
   XY=   -87.8651   YY=   117.5322   ZY=    13.6516
   XZ=     9.7995   YZ=     2.8571   ZZ=   152.7870
   Eigenvalues:   -27.1248   154.5198   162.3261
     50  O    Isotropic =  -131.6106   Anisotropy =   884.4863
   XX=  -193.9433   YX=   -94.5741   ZX=   258.4619
   XY=  -108.6902   YY=  -246.6712   ZY=  -432.2293
   XZ=   238.1640   YZ=  -425.9874   ZZ=    45.7829
   Eigenvalues:  -566.6062  -286.2725   458.0470
     51  O    Isotropic =   283.8262   Anisotropy =   139.0277
   XX=   214.3512   YX=    -7.2604   ZX=    79.1493
   XY=   113.6035   YY=   355.8933   ZY=   -61.0857
   XZ=   142.7410   YZ=     4.0342   ZZ=   281.2340
   Eigenvalues:   116.9828   357.9845   376.5113
     52  C    Isotropic =   197.2088   Anisotropy =    58.1634
   XX=   226.1555   YX=     5.7733   ZX=   -20.8328
   XY=     5.8409   YY=   177.9782   ZY=    -3.2409
   XZ=   -20.8768   YZ=    -2.5490   ZZ=   187.4927
   Eigenvalues:   177.1664   178.4756   235.9844
     53  C    Isotropic =   209.9719   Anisotropy =    41.7345
   XX=   204.8253   YX=     7.5820   ZX=    10.0955
   XY=     9.7514   YY=   210.4205   ZY=    19.9162
   XZ=     9.4872   YZ=    19.9861   ZZ=   214.6700
   Eigenvalues:   192.4800   199.6408   237.7949
     54  O    Isotropic =    14.2565   Anisotropy =   489.0723
   XX=    74.6146   YX=   -68.3827   ZX=   234.6713
   XY=   -83.1344   YY=  -153.9973   ZY=   -29.7847
   XZ=   228.8178   YZ=   -12.0803   ZZ=   122.1522
   Eigenvalues:  -192.9198  -104.6154   340.3047
     55  H    Isotropic =    25.7013   Anisotropy =    12.5252
   XX=    30.0955   YX=     4.2173   ZX=    -2.7337
   XY=     3.5180   YY=    26.4626   ZY=    -2.9228
   XZ=    -4.1780   YZ=    -2.9578   ZZ=    20.5459
   Eigenvalues:    18.9794    24.0731    34.0515
     56  H    Isotropic =    25.8020   Anisotropy =     6.8365
   XX=    27.6369   YX=    -1.9679   ZX=    -3.0177
   XY=    -1.0655   YY=    27.8326   ZY=     0.4222
   XZ=    -4.0183   YZ=     0.7666   ZZ=    21.9366
   Eigenvalues:    20.2572    26.7892    30.3597
     57  H    Isotropic =    26.5974   Anisotropy =     7.8054
   XX=    27.1033   YX=     2.1430   ZX=    -3.4154
   XY=     1.8183   YY=    30.6386   ZY=     0.2572
   XZ=    -4.2578   YZ=     0.0343   ZZ=    22.0504
   Eigenvalues:    19.8741    28.1171    31.8010
     58  H    Isotropic =    31.9193   Anisotropy =     7.2298
   XX=    32.0782   YX=     1.9732   ZX=    -3.6175
   XY=     1.1193   YY=    30.3557   ZY=    -1.0024
   XZ=    -3.9775   YZ=     0.7756   ZZ=    33.3239
   Eigenvalues:    28.2354    30.7833    36.7391
     59  H    Isotropic =    32.9319   Anisotropy =     8.5827
   XX=    30.2627   YX=     3.5505   ZX=     0.4025
   XY=     1.2545   YY=    34.9330   ZY=    -4.8790
   XZ=     3.5349   YZ=    -3.7119   ZZ=    33.5999
   Eigenvalues:    27.0161    33.1258    38.6537
     60  H    Isotropic =    32.1107   Anisotropy =    13.9907
   XX=    38.1349   YX=    -5.5401   ZX=     1.8268
   XY=    -5.8232   YY=    31.1878   ZY=     1.8834
   XZ=     3.4541   YZ=     2.3557   ZZ=    27.0095
   Eigenvalues:    24.2719    30.6225    41.4379
     61  H    Isotropic =    32.2550   Anisotropy =    15.9781
   XX=    39.8739   YX=     1.5527   ZX=     6.2167
   XY=     1.1827   YY=    28.8229   ZY=     1.6808
   XZ=     6.4746   YZ=     1.7735   ZZ=    28.0682
   Eigenvalues:    25.0057    28.8522    42.9071
     62  H    Isotropic =    32.5997   Anisotropy =    12.6813
   XX=    27.5982   YX=     0.1878   ZX=    -0.0844
   XY=    -0.9081   YY=    29.2281   ZY=    -1.4731
   XZ=     0.7652   YZ=    -0.3615   ZZ=    40.9726
   Eigenvalues:    27.5206    29.2245    41.0539
     63  H    Isotropic =    32.1098   Anisotropy =    10.8104
   XX=    35.0299   YX=    -0.5380   ZX=    -4.8973
   XY=    -0.7168   YY=    28.9482   ZY=     3.3040
   XZ=    -4.9231   YZ=     2.6837   ZZ=    32.3513
   Eigenvalues:    26.5563    30.4564    39.3167
     64  H    Isotropic =    31.6544   Anisotropy =    13.7798
   XX=    34.1925   YX=    -4.9012   ZX=     4.2988
   XY=    -4.6316   YY=    35.5731   ZY=    -2.0475
   XZ=     4.3934   YZ=    -1.4559   ZZ=    25.1975
   Eigenvalues:    23.4381    30.6841    40.8409
     65  H    Isotropic =    31.8436   Anisotropy =    12.4498
   XX=    29.5952   YX=     2.9206   ZX=    -2.8892
   XY=     3.0838   YY=    34.9918   ZY=    -5.3339
   XZ=    -2.7342   YZ=    -5.1174   ZZ=    30.9440
   Eigenvalues:    27.0237    28.3637    40.1435
     66  H    Isotropic =    32.3467   Anisotropy =    16.9815
   XX=    28.3746   YX=    -0.6802   ZX=     0.8015
   XY=    -0.4984   YY=    39.3183   ZY=     7.6070
   XZ=     0.9226   YZ=     8.1757   ZZ=    29.3473
   Eigenvalues:    24.7041    28.6683    43.6677
     67  H    Isotropic =    32.4751   Anisotropy =    12.2923
   XX=    27.2798   YX=    -0.8087   ZX=     0.6138
   XY=    -1.1246   YY=    30.0362   ZY=     2.2132
   XZ=     1.0354   YZ=     2.5479   ZZ=    40.1092
   Eigenvalues:    26.7890    29.9663    40.6699
     68  H    Isotropic =    32.2459   Anisotropy =    15.4695
   XX=    37.7520   YX=     5.5423   ZX=     3.2375
   XY=     5.4483   YY=    32.8453   ZY=     3.3164
   XZ=     3.2108   YZ=     3.2999   ZZ=    26.1404
   Eigenvalues:    24.6924    29.4865    42.5589
     69  H    Isotropic =    32.5436   Anisotropy =    11.9409
   XX=    34.0653   YX=    -2.2470   ZX=    -4.2789
   XY=    -1.1597   YY=    25.8438   ZY=    -1.4503
   XZ=    -4.0946   YZ=    -2.6130   ZZ=    37.7218
   Eigenvalues:    24.8166    32.3101    40.5042
     70  H    Isotropic =    33.4582   Anisotropy =    10.4702
   XX=    36.7799   YX=     1.8222   ZX=     5.4274
   XY=     3.3832   YY=    33.0236   ZY=     3.2780
   XZ=     3.6424   YZ=    -0.0101   ZZ=    30.5712
   Eigenvalues:    28.1665    31.7698    40.4384
     71  H    Isotropic =    31.9416   Anisotropy =    18.0220
   XX=    43.4879   YX=     0.1534   ZX=    -2.8744
   XY=     1.1096   YY=    28.1049   ZY=    -0.7228
   XZ=    -2.8945   YZ=    -2.3313   ZZ=    24.2318
   Eigenvalues:    23.3796    28.4889    43.9562
     72  H    Isotropic =    32.0827   Anisotropy =    15.5457
   XX=    36.4198   YX=    -5.1804   ZX=     6.0960
   XY=    -3.9750   YY=    29.3258   ZY=    -2.8725
   XZ=     4.9977   YZ=    -4.9429   ZZ=    30.5027
   Eigenvalues:    25.9568    27.8449    42.4465
     73  H    Isotropic =    32.0094   Anisotropy =    15.6377
   XX=    39.0990   YX=     6.5730   ZX=    -1.7036
   XY=     5.9636   YY=    30.3269   ZY=     1.7314
   XZ=    -2.2424   YZ=     1.2992   ZZ=    26.6022
   Eigenvalues:    24.5311    29.0625    42.4345
     74  H    Isotropic =    30.3284   Anisotropy =     9.5410
   XX=    26.8477   YX=    -1.6108   ZX=    -1.6402
   XY=    -1.8006   YY=    32.9843   ZY=    -4.0119
   XZ=    -1.5967   YZ=    -5.0262   ZZ=    31.1533
   Eigenvalues:    24.7962    29.5001    36.6891
     75  H    Isotropic =    31.2172   Anisotropy =    13.1616
   XX=    38.4485   YX=    -3.2948   ZX=    -2.5682
   XY=    -2.1501   YY=    27.7984   ZY=     2.1948
   XZ=    -3.3959   YZ=     1.4858   ZZ=    27.4047
   Eigenvalues:    25.7318    27.9281    39.9916
     76  H    Isotropic =    30.6688   Anisotropy =     7.5359
   XX=    33.7206   YX=    -0.7987   ZX=     2.9880
   XY=    -1.5510   YY=    25.5905   ZY=     0.4837
   XZ=     1.7841   YZ=     0.3193   ZZ=    32.6953
   Eigenvalues:    25.3445    30.9692    35.6927
     77  H    Isotropic =    30.5623   Anisotropy =    11.8084
   XX=    26.0133   YX=    -1.6465   ZX=    -1.5919
   XY=    -1.8581   YY=    32.8126   ZY=     4.7344
   XZ=    -2.3555   YZ=     5.3428   ZZ=    32.8612
   Eigenvalues:    25.4451    27.8073    38.4346
     78  H    Isotropic =    30.5371   Anisotropy =    12.0738
   XX=    28.8051   YX=     2.1566   ZX=    -4.7013
   XY=     2.8225   YY=    28.5312   ZY=    -3.1585
   XZ=    -5.0261   YZ=    -2.8115   ZZ=    34.2750
   Eigenvalues:    25.6945    27.3305    38.5863
     79  H    Isotropic =    31.8789   Anisotropy =    12.1003
   XX=    31.5110   YX=    -5.2917   ZX=     1.9001
   XY=    -5.3939   YY=    33.8815   ZY=    -2.8669
   XZ=     3.7160   YZ=    -3.2701   ZZ=    30.2442
   Eigenvalues:    27.1752    28.5157    39.9458
     80  H    Isotropic =    30.7102   Anisotropy =    14.4026
   XX=    27.0354   YX=    -0.9121   ZX=    -2.3673
   XY=    -0.9587   YY=    36.3708   ZY=     6.5916
   XZ=    -1.9043   YZ=     6.3094   ZZ=    28.7243
   Eigenvalues:    24.2828    27.5358    40.3119
     81  H    Isotropic =    30.8672   Anisotropy =    11.1551
   XX=    34.8540   YX=    -1.3120   ZX=    -6.2828
   XY=    -1.7445   YY=    30.5020   ZY=     0.2011
   XZ=    -5.5589   YZ=    -0.3910   ZZ=    27.2457
   Eigenvalues:    23.9094    30.3883    38.3039
     82  H    Isotropic =    29.9171   Anisotropy =    12.4513
   XX=    27.2303   YX=     0.0790   ZX=     0.0303
   XY=     0.1013   YY=    35.8148   ZY=    -4.7259
   XZ=    -0.0454   YZ=    -5.7917   ZZ=    26.7062
   Eigenvalues:    24.3034    27.2299    38.2179
     83  H    Isotropic =    29.8830   Anisotropy =     7.9058
   XX=    26.1725   YX=     0.0171   ZX=     0.1406
   XY=    -0.0046   YY=    29.5288   ZY=     2.0605
   XZ=     0.1597   YZ=     3.1424   ZZ=    33.9478
   Eigenvalues:    26.1688    28.3267    35.1536
     84  H    Isotropic =    24.9459   Anisotropy =    13.3159
   XX=    28.8515   YX=    -4.7676   ZX=     2.7970
   XY=    -4.1910   YY=    26.1323   ZY=    -2.9923
   XZ=     4.6903   YZ=    -3.0300   ZZ=    19.8538
   Eigenvalues:    18.1971    22.8174    33.8232
     85  H    Isotropic =    25.7428   Anisotropy =     6.6890
   XX=    27.4889   YX=     2.0134   ZX=     3.1437
   XY=     1.0857   YY=    27.6852   ZY=     0.0179
   XZ=     4.0809   YZ=     0.5241   ZZ=    22.0542
   Eigenvalues:    20.2233    26.8029    30.2021
     86  H    Isotropic =    26.6742   Anisotropy =     7.8793
   XX=    26.2807   YX=    -0.7602   ZX=     4.1077
   XY=    -0.8215   YY=    31.0229   ZY=    -1.4577
   XZ=     4.1942   YZ=    -1.7997   ZZ=    22.7189
   Eigenvalues:    19.9042    28.1913    31.9271
     87  H    Isotropic =    30.7983   Anisotropy =    13.4365
   XX=    39.2563   YX=    -0.5722   ZX=     2.5194
   XY=    -2.4741   YY=    28.5229   ZY=    -0.5914
   XZ=     1.3444   YZ=    -1.8517   ZZ=    24.6156
   Eigenvalues:    24.1208    28.5181    39.7560
     88  H    Isotropic =    32.3736   Anisotropy =    13.1481
   XX=    27.6524   YX=     3.9284   ZX=     0.2349
   XY=     3.1882   YY=    30.9252   ZY=     4.6757
   XZ=     2.1501   YZ=     4.3070   ZZ=    38.5433
   Eigenvalues:    25.1877    30.7942    41.1390
     89  H    Isotropic =    33.3805   Anisotropy =     9.0473
   XX=    35.5589   YX=    -3.7592   ZX=    -3.4408
   XY=    -4.9595   YY=    34.4642   ZY=    -0.2646
   XZ=     0.2328   YZ=    -2.6286   ZZ=    30.1183
   Eigenvalues:    28.2047    32.5247    39.4120
     90  H    Isotropic =    32.3331   Anisotropy =    14.0981
   XX=    27.0327   YX=     1.1870   ZX=    -0.8884
   XY=     1.0788   YY=    28.8561   ZY=    -2.3407
   XZ=    -0.7797   YZ=    -2.9494   ZZ=    41.1105
   Eigenvalues:    26.4776    28.7899    41.7318
     91  H    Isotropic =    32.7586   Anisotropy =    14.9369
   XX=    42.3833   YX=     0.0564   ZX=    -2.4750
   XY=    -0.5683   YY=    28.2802   ZY=     1.3374
   XZ=    -1.9653   YZ=    -0.5318   ZZ=    27.6122
   Eigenvalues:    27.1677    28.3914    42.7165
     92  H    Isotropic =    30.5164   Anisotropy =    13.5553
   XX=    26.0710   YX=     1.2310   ZX=     0.3419
   XY=     2.5958   YY=    33.2268   ZY=     7.4211
   XZ=    -0.0959   YZ=     5.8415   ZZ=    32.2514
   Eigenvalues:    24.7896    27.2064    39.5533
     93  H    Isotropic =    31.9035   Anisotropy =     9.7572
   XX=    34.1289   YX=    -3.8353   ZX=    -0.9796
   XY=    -4.3214   YY=    34.4832   ZY=     0.4459
   XZ=     0.1937   YZ=     0.1227   ZZ=    27.0984
   Eigenvalues:    27.0759    30.2263    38.4083
     94  H    Isotropic =    32.2111   Anisotropy =    16.7246
   XX=    27.9508   YX=     3.5644   ZX=    -0.0425
   XY=     4.8264   YY=    42.1263   ZY=    -1.0979
   XZ=    -0.3850   YZ=    -1.2778   ZZ=    26.5564
   Eigenvalues:    26.4387    26.8338    43.3609
     95  H    Isotropic =    31.7084   Anisotropy =    17.2375
   XX=    42.5712   YX=    -1.3578   ZX=     3.3715
   XY=    -1.1168   YY=    27.7524   ZY=     0.1413
   XZ=     2.8245   YZ=    -0.7320   ZZ=    24.8017
   Eigenvalues:    24.2749    27.6502    43.2001
     96  H    Isotropic =    32.4596   Anisotropy =    13.7226
   XX=    30.3378   YX=    -2.0733   ZX=     4.7114
   XY=    -1.6320   YY=    36.4779   ZY=    -5.9509
   XZ=     4.2500   YZ=    -5.9478   ZZ=    30.5631
   Eigenvalues:    25.0120    30.7589    41.6080
     97  H    Isotropic =    32.2905   Anisotropy =    12.2626
   XX=    34.6332   YX=     2.6746   ZX=    -6.0108
   XY=     3.1135   YY=    29.4607   ZY=    -0.5796
   XZ=    -5.8830   YZ=    -1.4038   ZZ=    32.7776
   Eigenvalues:    26.9919    29.4141    40.4656
     98  H    Isotropic =    31.7602   Anisotropy =    11.0586
   XX=    26.7902   YX=    -3.6046   ZX=    -0.7809
   XY=    -2.1307   YY=    30.9705   ZY=    -5.2397
   XZ=    -0.4313   YZ=    -1.9311   ZZ=    37.5199
   Eigenvalues:    24.9226    31.2255    39.1326
     99  H    Isotropic =    32.7613   Anisotropy =    11.9056
   XX=    39.7062   YX=     3.1847   ZX=    -1.6198
   XY=     3.1000   YY=    28.1310   ZY=    -0.0403
   XZ=    -1.6154   YZ=     1.3623   ZZ=    30.4468
   Eigenvalues:    27.0055    30.5802    40.6984
    100  H    Isotropic =    30.6407   Anisotropy =    14.3649
   XX=    27.3498   YX=    -0.7196   ZX=    -6.2943
   XY=    -0.6185   YY=    27.9595   ZY=     3.8977
   XZ=    -3.3521   YZ=     4.9731   ZZ=    36.6128
   Eigenvalues:    24.6515    27.0533    40.2173
    101  H    Isotropic =    31.4665   Anisotropy =     9.9701
   XX=    36.2742   YX=    -4.1384   ZX=    -0.5142
   XY=    -3.3608   YY=    30.2891   ZY=     0.1384
   XZ=    -0.0019   YZ=     1.5161   ZZ=    27.8362
   Eigenvalues:    27.4247    28.8616    38.1132
    102  H    Isotropic =    31.8007   Anisotropy =     9.9123
   XX=    33.7294   YX=    -4.7111   ZX=    -0.7496
   XY=    -3.2487   YY=    33.3845   ZY=     3.4975
   XZ=    -1.1679   YZ=     2.9393   ZZ=    28.2882
   Eigenvalues:    26.5866    30.4067    38.4089
    103  H    Isotropic =    32.1466   Anisotropy =    14.5634
   XX=    29.7985   YX=    -1.0290   ZX=     5.2464
   XY=    -0.3289   YY=    31.4130   ZY=    -6.4893
   XZ=     4.8073   YZ=    -6.6772   ZZ=    35.2284
   Eigenvalues:    24.8130    29.7713    41.8556
    104  H    Isotropic =    31.2043   Anisotropy =    12.6267
   XX=    30.7759   YX=     2.2883   ZX=     5.5611
   XY=     2.5678   YY=    27.4931   ZY=     0.8571
   XZ=     5.4711   YZ=     2.3159   ZZ=    35.3438
   Eigenvalues:    25.8813    28.1094    39.6221
    105  H    Isotropic =    30.5760   Anisotropy =    11.7526
   XX=    36.2906   YX=    -3.7605   ZX=     1.2095
   XY=    -4.3963   YY=    29.8543   ZY=    -1.1470
   XZ=     0.9699   YZ=    -0.5737   ZZ=    25.5831
   Eigenvalues:    25.4041    27.9129    38.4111
    106  H    Isotropic =    30.5163   Anisotropy =    12.3313
   XX=    33.9286   YX=     5.7058   ZX=     1.1965
   XY=     5.1466   YY=    31.9920   ZY=     2.0123
   XZ=     0.5557   YZ=     1.6864   ZZ=    25.6282
   Eigenvalues:    25.0636    27.7481    38.7372
    107  H    Isotropic =    30.6331   Anisotropy =     7.8041
   XX=    31.6214   YX=     1.1457   ZX=    -1.8369
   XY=     1.3970   YY=    26.0755   ZY=    -1.0572
   XZ=    -2.6537   YZ=    -1.6378   ZZ=    34.2024
   Eigenvalues:    25.7045    30.3590    35.8358
    108  H    Isotropic =    31.0077   Anisotropy =    11.1415
   XX=    31.9987   YX=    -0.4046   ZX=     6.3509
   XY=     0.0020   YY=    30.4595   ZY=     1.7929
   XZ=     7.6845   YZ=     1.2896   ZZ=    30.5649
   Eigenvalues:    23.9733    30.6144    38.4353
    109  H    Isotropic =    30.7979   Anisotropy =    14.8992
   XX=    30.3602   YX=     6.2526   ZX=     1.1313
   XY=     6.2612   YY=    36.9243   ZY=    -0.2208
   XZ=     2.0491   YZ=    -0.3089   ZZ=    25.1091
   Eigenvalues:    24.1596    27.5034    40.7307
    110  H    Isotropic =    32.0228   Anisotropy =    10.9469
   XX=    30.1682   YX=    -1.2135   ZX=    -3.1621
   XY=    -1.3165   YY=    32.9834   ZY=     5.6937
   XZ=    -0.8319   YZ=     5.8834   ZZ=    32.9169
   Eigenvalues:    27.0580    29.6897    39.3208
 End of Minotr F.D. properties file   721 does not exist.
 End of Minotr F.D. properties file   722 does not exist.
 End of Minotr F.D. properties file   788 does not exist.
 Hyperfine terms turned off by default for NAtoms > 100.

 **********************************************************************

            Population analysis using the SCF Density.

 **********************************************************************

 Orbital symmetries:
       Occupied  (A) (A) (A) (A) (A) (A) (A) (A) (A) (A) (A) (A)
                 (A) (A) (A) (A) (A) (A) (A) (A) (A) (A) (A) (A)
                 (A) (A) (A) (A) (A) (A) (A) (A) (A) (A) (A) (A)
                 (A) (A) (A) (A) (A) (A) (A) (A) (A) (A) (A) (A)
                 (A) (A) (A) (A) (A) (A) (A) (A) (A) (A) (A) (A)
                 (A) (A) (A) (A) (A) (A) (A) (A) (A) (A) (A) (A)
                 (A) (A) (A) (A) (A) (A) (A) (A) (A) (A) (A) (A)
                 (A) (A) (A) (A) (A) (A) (A) (A) (A) (A) (A) (A)
                 (A) (A) (A) (A) (A) (A) (A) (A) (A) (A) (A) (A)
                 (A) (A) (A) (A) (A) (A) (A) (A) (A) (A) (A) (A)
                 (A) (A) (A) (A) (A) (A) (A) (A) (A) (A) (A) (A)
                 (A) (A) (A) (A) (A) (A) (A) (A) (A) (A) (A) (A)
                 (A) (A) (A) (A) (A) (A) (A) (A) (A) (A) (A) (A)
                 (A) (A) (A) (A) (A) (A) (A) (A) (A) (A) (A) (A)
                 (A) (A) (A) (A) (A) (A) (A) (A) (A) (A) (A) (A)
                 (A) (A) (A) (A) (A) (A) (A) (A) (A) (A) (A) (A)
                 (A) (A) (A) (A) (A)
       Virtual   (A) (A) (A) (A) (A) (A) (A) (A) (A) (A) (A) (A)
                 (A) (A) (A) (A) (A) (A) (A) (A) (A) (A) (A) (A)
                 (A) (A) (A) (A) (A) (A) (A) (A) (A) (A) (A) (A)
                 (A) (A) (A) (A) (A) (A) (A) (A) (A) (A) (A) (A)
                 (A) (A) (A) (A) (A) (A) (A) (A) (A) (A) (A) (A)
                 (A) (A) (A) (A) (A) (A) (A) (A) (A) (A) (A) (A)
                 (A) (A) (A) (A) (A) (A) (A) (A) (A) (A) (A) (A)
                 (A) (A) (A) (A) (A) (A) (A) (A) (A) (A) (A) (A)
                 (A) (A) (A) (A) (A) (A) (A) (A) (A) (A) (A) (A)
                 (A) (A) (A) (A) (A) (A) (A) (A) (A) (A) (A) (A)
                 (A) (A) (A) (A) (A) (A) (A) (A) (A)
 The electronic state is 1-A.
 Alpha  occ. eigenvalues --  -20.31373 -20.29793 -20.25294 -20.23810 -19.91617
 Alpha  occ. eigenvalues --  -15.47847 -15.33923 -15.32950 -15.29557 -11.17319
 Alpha  occ. eigenvalues --  -11.15662 -11.11071 -11.10231 -11.09988 -11.09066
 Alpha  occ. eigenvalues --  -11.08993 -11.08740 -11.08272 -11.08180 -11.07371
 Alpha  occ. eigenvalues --  -11.07307 -11.07232 -11.06948 -11.06108 -11.06077
 Alpha  occ. eigenvalues --  -11.06043 -11.05794 -11.05689 -11.05638 -11.05539
 Alpha  occ. eigenvalues --  -11.05250 -11.05113 -11.05015 -11.04998 -11.04946
 Alpha  occ. eigenvalues --  -11.04586 -11.04493 -11.03892 -11.03256 -11.03245
 Alpha  occ. eigenvalues --  -11.03211 -11.03153 -11.03122 -11.03106 -11.01824
 Alpha  occ. eigenvalues --  -11.01616 -11.01612 -11.01541 -11.01360 -11.01304
 Alpha  occ. eigenvalues --  -11.01237 -11.01224 -11.01057 -11.00893  -1.38586
 Alpha  occ. eigenvalues --   -1.37070  -1.28457  -1.28031  -1.26758  -1.21368
 Alpha  occ. eigenvalues --   -1.20965  -1.18664  -1.11755  -1.08881  -1.08381
 Alpha  occ. eigenvalues --   -1.07172  -1.06179  -1.04226  -1.03303  -1.00551
 Alpha  occ. eigenvalues --   -0.99935  -0.98799  -0.98042  -0.97443  -0.96788
 Alpha  occ. eigenvalues --   -0.95848  -0.94646  -0.93705  -0.93622  -0.92552
 Alpha  occ. eigenvalues --   -0.92134  -0.91206  -0.90822  -0.89326  -0.87697
 Alpha  occ. eigenvalues --   -0.86200  -0.84517  -0.82843  -0.82358  -0.80981
 Alpha  occ. eigenvalues --   -0.80824  -0.78913  -0.78364  -0.77768  -0.76507
 Alpha  occ. eigenvalues --   -0.76400  -0.74499  -0.73522  -0.72962  -0.72482
 Alpha  occ. eigenvalues --   -0.71636  -0.69804  -0.69498  -0.68866  -0.66850
 Alpha  occ. eigenvalues --   -0.65482  -0.64974  -0.64731  -0.63912  -0.62844
 Alpha  occ. eigenvalues --   -0.62593  -0.61993  -0.61580  -0.61210  -0.60946
 Alpha  occ. eigenvalues --   -0.60665  -0.59460  -0.59395  -0.59325  -0.58937
 Alpha  occ. eigenvalues --   -0.58372  -0.57965  -0.57554  -0.57291  -0.57127
 Alpha  occ. eigenvalues --   -0.56862  -0.56605  -0.56258  -0.56194  -0.55756
 Alpha  occ. eigenvalues --   -0.55402  -0.55225  -0.54850  -0.54280  -0.54078
 Alpha  occ. eigenvalues --   -0.53690  -0.53209  -0.52818  -0.52744  -0.52183
 Alpha  occ. eigenvalues --   -0.51681  -0.51407  -0.51025  -0.50984  -0.50446
 Alpha  occ. eigenvalues --   -0.49921  -0.49691  -0.49172  -0.49034  -0.48783
 Alpha  occ. eigenvalues --   -0.48438  -0.48002  -0.47684  -0.47541  -0.47097
 Alpha  occ. eigenvalues --   -0.46306  -0.46105  -0.45977  -0.45585  -0.45438
 Alpha  occ. eigenvalues --   -0.44837  -0.44803  -0.44580  -0.44340  -0.43970
 Alpha  occ. eigenvalues --   -0.43478  -0.43186  -0.43093  -0.42706  -0.42261
 Alpha  occ. eigenvalues --   -0.41846  -0.41674  -0.41221  -0.40970  -0.40718
 Alpha  occ. eigenvalues --   -0.40397  -0.39746  -0.39290  -0.38963  -0.37605
 Alpha  occ. eigenvalues --   -0.37170  -0.36679  -0.35540  -0.35298  -0.34663
 Alpha  occ. eigenvalues --   -0.33962  -0.33417  -0.32513  -0.32368  -0.31243
 Alpha  occ. eigenvalues --   -0.26812  -0.26774  -0.26320  -0.21339  -0.20087
 Alpha  occ. eigenvalues --   -0.15399  -0.15321
 Alpha virt. eigenvalues --    0.26899   0.27394   0.27942   0.29659   0.29785
 Alpha virt. eigenvalues --    0.31383   0.46086   0.47210   0.48613   0.48936
 Alpha virt. eigenvalues --    0.50004   0.50457   0.50505   0.51374   0.52690
 Alpha virt. eigenvalues --    0.52796   0.54353   0.54587   0.55688   0.56516
 Alpha virt. eigenvalues --    0.56722   0.57796   0.58355   0.58462   0.58779
 Alpha virt. eigenvalues --    0.59304   0.59474   0.59832   0.60292   0.60773
 Alpha virt. eigenvalues --    0.61445   0.61906   0.62321   0.62612   0.62868
 Alpha virt. eigenvalues --    0.62971   0.63866   0.63933   0.64119   0.64425
 Alpha virt. eigenvalues --    0.64841   0.64950   0.65366   0.65654   0.65832
 Alpha virt. eigenvalues --    0.66038   0.66497   0.66696   0.66926   0.67287
 Alpha virt. eigenvalues --    0.67627   0.67997   0.68287   0.68608   0.68752
 Alpha virt. eigenvalues --    0.68949   0.69104   0.69303   0.69836   0.69925
 Alpha virt. eigenvalues --    0.70171   0.70552   0.70794   0.70842   0.71513
 Alpha virt. eigenvalues --    0.71566   0.71795   0.72251   0.72550   0.72750
 Alpha virt. eigenvalues --    0.72911   0.73266   0.73395   0.73504   0.73541
 Alpha virt. eigenvalues --    0.74337   0.74728   0.74867   0.74970   0.75371
 Alpha virt. eigenvalues --    0.75530   0.75665   0.75867   0.76091   0.76310
 Alpha virt. eigenvalues --    0.76398   0.76635   0.77292   0.77482   0.77697
 Alpha virt. eigenvalues --    0.78134   0.78252   0.78416   0.78928   0.79240
 Alpha virt. eigenvalues --    0.79863   0.79953   0.80219   0.80528   0.80802
 Alpha virt. eigenvalues --    0.80950   0.81349   0.81827   0.81894   0.82364
 Alpha virt. eigenvalues --    0.82655   0.83637   0.83990   0.85255   0.85383
 Alpha virt. eigenvalues --    0.85711   0.86283   0.86698   0.86942   0.88119
 Alpha virt. eigenvalues --    0.88526   0.89695   0.91196   0.91790   0.94426
 Alpha virt. eigenvalues --    0.94949   0.95894   0.98597   1.00732   1.02114
 Alpha virt. eigenvalues --    1.11052   1.11864   1.16256   1.16607
          Condensed to atoms (all electrons):
 Mulliken charges:
               1
     1  C   -0.077465
     2  C    0.001497
     3  C   -0.063466
     4  C   -0.090233
     5  C    0.088777
     6  C   -0.014036
     7  N   -0.283475
     8  C    0.015290
     9  C    0.129472
    10  C    0.039828
    11  C   -0.114598
    12  C   -0.107877
    13  C    0.041669
    14  N   -0.292254
    15  C   -0.013231
    16  C   -0.095472
    17  C   -0.100366
    18  C   -0.099246
    19  C   -0.016277
    20  C   -0.104249
    21  C   -0.063987
    22  C    0.318390
    23  O   -0.274936
    24  O   -0.255979
    25  C   -0.055270
    26  C   -0.078622
    27  C   -0.109607
    28  C    0.002092
    29  C   -0.073454
    30  C   -0.060979
    31  C   -0.090151
    32  C    0.086422
    33  C   -0.011968
    34  N   -0.285897
    35  C    0.017185
    36  C    0.128044
    37  C    0.039637
    38  C   -0.116701
    39  C   -0.103700
    40  C    0.027481
    41  N   -0.080639
    42  C   -0.008823
    43  C   -0.104039
    44  C   -0.104500
    45  C   -0.106547
    46  C   -0.015869
    47  C   -0.108843
    48  C   -0.068069
    49  C    0.320005
    50  O   -0.279156
    51  O   -0.254479
    52  C   -0.055737
    53  C   -0.080414
    54  O   -0.456786
    55  H    0.063430
    56  H    0.054613
    57  H    0.057791
    58  H    0.045972
    59  H    0.053917
    60  H    0.048823
    61  H    0.047843
    62  H    0.049830
    63  H    0.046564
    64  H    0.058676
    65  H    0.054295
    66  H    0.049700
    67  H    0.047719
    68  H    0.050383
    69  H    0.064452
    70  H    0.055406
    71  H    0.047167
    72  H    0.056377
    73  H    0.047595
    74  H    0.079390
    75  H    0.062646
    76  H    0.073211
    77  H    0.075889
    78  H    0.071196
    79  H    0.054479
    80  H    0.070651
    81  H    0.075625
    82  H    0.056546
    83  H    0.061694
    84  H    0.082455
    85  H    0.056331
    86  H    0.058120
    87  H    0.088746
    88  H    0.052469
    89  H    0.059630
    90  H    0.052371
    91  H    0.055118
    92  H    0.092297
    93  H    0.059643
    94  H    0.064489
    95  H    0.074331
    96  H    0.053274
    97  H    0.058641
    98  H    0.079973
    99  H    0.070485
   100  H    0.089521
   101  H    0.072554
   102  H    0.062515
   103  H    0.055588
   104  H    0.067729
   105  H    0.073309
   106  H    0.079090
   107  H    0.075688
   108  H    0.075843
   109  H    0.073075
   110  H    0.056444
 Sum of Mulliken charges =  -0.00000
 Mulliken charges with hydrogens summed into heavy atoms:
               1
     1  C   -0.014035
     2  C    0.001497
     3  C   -0.008852
     4  C   -0.032442
     5  C    0.088777
     6  C   -0.014036
     7  N   -0.283475
     8  C    0.015290
     9  C    0.129472
    10  C    0.085800
    11  C   -0.011859
    12  C   -0.010204
    13  C    0.041669
    14  N   -0.292254
    15  C    0.092009
    16  C    0.008523
    17  C   -0.002265
    18  C    0.020612
    19  C    0.087267
    20  C    0.022736
    21  C   -0.001342
    22  C    0.318390
    23  O   -0.274936
    24  O   -0.255979
    25  C    0.165026
    26  C    0.122133
    27  C    0.008634
    28  C    0.002092
    29  C    0.009000
    30  C   -0.004648
    31  C   -0.032031
    32  C    0.086422
    33  C   -0.011968
    34  N   -0.285897
    35  C    0.017185
    36  C    0.128044
    37  C    0.128383
    38  C   -0.004603
    39  C    0.003788
    40  C    0.027481
    41  N   -0.080639
    42  C    0.143117
    43  C    0.034781
    44  C    0.007415
    45  C    0.043912
    46  C    0.146207
    47  C    0.009259
    48  C   -0.000340
    49  C    0.320005
    50  O   -0.279156
    51  O   -0.254479
    52  C    0.172349
    53  C    0.124948
    54  O   -0.456786
 Electronic spatial extent (au):  <R**2>=          36951.3146
 Charge=             -0.0000 electrons
 Dipole moment (field-independent basis, Debye):
    X=              1.9768    Y=              0.6407    Z=              3.3683  Tot=              3.9578
 Quadrupole moment (field-independent basis, Debye-Ang):
   XX=           -272.3509   YY=           -296.1845   ZZ=           -303.2507
   XY=             -5.9724   XZ=             13.6255   YZ=              0.2180
 Traceless Quadrupole moment (field-independent basis, Debye-Ang):
   XX=             18.2444   YY=             -5.5891   ZZ=            -12.6553
   XY=             -5.9724   XZ=             13.6255   YZ=              0.2180
 Octapole moment (field-independent basis, Debye-Ang**2):
  XXX=             84.9781  YYY=            -18.1760  ZZZ=             76.1396  XYY=             38.0823
  XXY=             44.7094  XXZ=             42.7151  XZZ=              2.3763  YZZ=             19.6542
  YYZ=             10.8804  XYZ=            -30.7206
 Hexadecapole moment (field-independent basis, Debye-Ang**3):
 XXXX=         -30260.2887 YYYY=          -8879.8193 ZZZZ=          -4684.8627 XXXY=            157.4472
 XXXZ=            -24.9232 YYYX=           -140.1257 YYYZ=             77.2430 ZZZX=           -253.4006
 ZZZY=             81.4156 XXYY=          -6907.8884 XXZZ=          -6051.6996 YYZZ=          -2383.8587
 XXYZ=            109.2529 YYXZ=             23.8604 ZZXY=            -78.4721
 N-N= 8.165332690457D+03 E-N=-2.170738819820D+04  KE= 2.279185916615D+03
 ******************************Gaussian NBO Version 3.1******************************
             N A T U R A L   A T O M I C   O R B I T A L   A N D
          N A T U R A L   B O N D   O R B I T A L   A N A L Y S I S
 ******************************Gaussian NBO Version 3.1******************************
       /RESON  / : Allow strongly delocalized NBO set
       /NLMO   / : Form Natural Localized Molecular Orbitals
       /NMR /    : Analyze NMR Sheilding Tensor 

 Analyzing the SCF density

 Job title: pleiokomenine_C_1a                                              

 Storage needed:    355564 in NPA,    438187 in NBO,   2133784 in NLMO ( 104796000 available)
 GSVD:  LWork=     -108884 too small for GESVD, short by      536270 words or      536270 for optimal perf.


 NATURAL POPULATIONS:  Natural atomic orbital occupancies 
                                                          
   NAO  Atom  No  lang   Type(AO)    Occupancy      Energy
 ----------------------------------------------------------
     1    C    1  S      Cor( 1S)     1.99992     -10.93730
     2    C    1  S      Val( 2S)     1.07888      -0.16909
     3    C    1  px     Val( 2p)     0.98835       0.11261
     4    C    1  py     Val( 2p)     0.98275       0.16274
     5    C    1  pz     Val( 2p)     1.01068       0.06575
 
     6    C    2  S      Cor( 1S)     1.99990     -10.94908
     7    C    2  S      Val( 2S)     1.07855      -0.17641
     8    C    2  px     Val( 2p)     0.95348       0.13057
     9    C    2  py     Val( 2p)     0.96073       0.18317
    10    C    2  pz     Val( 2p)     0.99087       0.07591
 
    11    C    3  S      Cor( 1S)     1.99994     -10.94043
    12    C    3  S      Val( 2S)     1.08343      -0.17526
    13    C    3  px     Val( 2p)     0.98307       0.11755
    14    C    3  py     Val( 2p)     0.97552       0.16366
    15    C    3  pz     Val( 2p)     0.99386       0.07223
 
    16    C    4  S      Cor( 1S)     1.99993     -10.93439
    17    C    4  S      Val( 2S)     1.07196      -0.16673
    18    C    4  px     Val( 2p)     1.01050       0.10475
    19    C    4  py     Val( 2p)     0.97516       0.16719
    20    C    4  pz     Val( 2p)     1.02966       0.06105
 
    21    C    5  S      Cor( 1S)     1.99985     -10.98076
    22    C    5  S      Val( 2S)     1.06120      -0.17915
    23    C    5  px     Val( 2p)     0.91801       0.12161
    24    C    5  py     Val( 2p)     0.97783       0.16380
    25    C    5  pz     Val( 2p)     0.93089       0.07834
 
    26    C    6  S      Cor( 1S)     1.99990     -10.94025
    27    C    6  S      Val( 2S)     1.08461      -0.18261
    28    C    6  px     Val( 2p)     0.99213       0.12048
    29    C    6  py     Val( 2p)     0.95181       0.15430
    30    C    6  pz     Val( 2p)     0.99479       0.08674
 
    31    N    7  S      Cor( 1S)     1.99998     -15.26235
    32    N    7  S      Val( 2S)     1.40813      -0.58846
    33    N    7  px     Val( 2p)     1.14030      -0.00117
    34    N    7  py     Val( 2p)     1.07377       0.02116
    35    N    7  pz     Val( 2p)     1.65008      -0.20454
 
    36    C    8  S      Cor( 1S)     1.99996     -10.99847
    37    C    8  S      Val( 2S)     1.10653      -0.22326
    38    C    8  px     Val( 2p)     0.94498       0.10730
    39    C    8  py     Val( 2p)     0.95524       0.12621
    40    C    8  pz     Val( 2p)     0.97793       0.08223
 
    41    C    9  S      Cor( 1S)     1.99996     -11.04316
    42    C    9  S      Val( 2S)     1.11253      -0.24926
    43    C    9  px     Val( 2p)     0.94837       0.09450
    44    C    9  py     Val( 2p)     0.84402       0.13136
    45    C    9  pz     Val( 2p)     0.92185       0.09176
 
    46    C   10  S      Cor( 1S)     1.99994     -11.00555
    47    C   10  S      Val( 2S)     1.09284      -0.20616
    48    C   10  px     Val( 2p)     0.96400       0.09014
    49    C   10  py     Val( 2p)     0.91128       0.10889
    50    C   10  pz     Val( 2p)     0.96043       0.11347
 
    51    C   11  S      Cor( 1S)     1.99994     -10.97268
    52    C   11  S      Val( 2S)     1.10425      -0.20750
    53    C   11  px     Val( 2p)     1.00962       0.08787
    54    C   11  py     Val( 2p)     0.98910       0.09553
    55    C   11  pz     Val( 2p)     0.98136       0.09163
 
    56    C   12  S      Cor( 1S)     1.99996     -10.96925
    57    C   12  S      Val( 2S)     1.08881      -0.18958
    58    C   12  px     Val( 2p)     1.01288       0.09422
    59    C   12  py     Val( 2p)     0.97852       0.09647
    60    C   12  pz     Val( 2p)     0.99783       0.09800
 
    61    C   13  S      Cor( 1S)     1.99998     -10.99624
    62    C   13  S      Val( 2S)     1.10024      -0.21329
    63    C   13  px     Val( 2p)     0.94502       0.11779
    64    C   13  py     Val( 2p)     0.94610       0.11956
    65    C   13  pz     Val( 2p)     0.94531       0.11772
 
    66    N   14  S      Cor( 1S)     1.99999     -15.22618
    67    N   14  S      Val( 2S)     1.42017      -0.57178
    68    N   14  px     Val( 2p)     1.33341      -0.06194
    69    N   14  py     Val( 2p)     1.10093       0.03547
    70    N   14  pz     Val( 2p)     1.42716      -0.09558
 
    71    C   15  S      Cor( 1S)     1.99994     -11.00018
    72    C   15  S      Val( 2S)     1.07044      -0.18137
    73    C   15  px     Val( 2p)     0.98752       0.09191
    74    C   15  py     Val( 2p)     0.92487       0.10991
    75    C   15  pz     Val( 2p)     0.97606       0.10385
 
    76    C   16  S      Cor( 1S)     1.99996     -10.97060
    77    C   16  S      Val( 2S)     1.08452      -0.18414
    78    C   16  px     Val( 2p)     0.97063       0.10711
    79    C   16  py     Val( 2p)     0.98876       0.10191
    80    C   16  pz     Val( 2p)     1.01450       0.09993
 
    81    C   17  S      Cor( 1S)     1.99995     -10.97225
    82    C   17  S      Val( 2S)     1.09059      -0.19055
    83    C   17  px     Val( 2p)     0.99992       0.09960
    84    C   17  py     Val( 2p)     0.97497       0.10274
    85    C   17  pz     Val( 2p)     0.99891       0.09757
 
    86    C   18  S      Cor( 1S)     1.99994     -10.97084
    87    C   18  S      Val( 2S)     1.09370      -0.19204
    88    C   18  px     Val( 2p)     0.99129       0.09508
    89    C   18  py     Val( 2p)     0.98940       0.09418
    90    C   18  pz     Val( 2p)     0.99134       0.10324
 
    91    C   19  S      Cor( 1S)     1.99995     -10.99872
    92    C   19  S      Val( 2S)     1.07185      -0.18286
    93    C   19  px     Val( 2p)     0.93228       0.12206
    94    C   19  py     Val( 2p)     0.97246       0.08328
    95    C   19  pz     Val( 2p)     0.98612       0.09104
 
    96    C   20  S      Cor( 1S)     1.99992     -10.97403
    97    C   20  S      Val( 2S)     1.10192      -0.20241
    98    C   20  px     Val( 2p)     1.01279       0.09461
    99    C   20  py     Val( 2p)     0.96915       0.10380
   100    C   20  pz     Val( 2p)     0.98280       0.09426
 
   101    C   21  S      Cor( 1S)     1.99994     -11.00194
   102    C   21  S      Val( 2S)     1.11386      -0.23392
   103    C   21  px     Val( 2p)     1.00862       0.07491
   104    C   21  py     Val( 2p)     0.99385       0.07658
   105    C   21  pz     Val( 2p)     0.96391       0.08910
 
   106    C   22  S      Cor( 1S)     1.99991     -11.10382
   107    C   22  S      Val( 2S)     1.05631      -0.25345
   108    C   22  px     Val( 2p)     0.86177       0.00670
   109    C   22  py     Val( 2p)     0.77667       0.18745
   110    C   22  pz     Val( 2p)     0.90433       0.10522
 
   111    O   23  S      Cor( 1S)     1.99999     -20.09051
   112    O   23  S      Val( 2S)     1.80826      -1.04971
   113    O   23  px     Val( 2p)     1.28182      -0.12654
   114    O   23  py     Val( 2p)     1.45740      -0.15308
   115    O   23  pz     Val( 2p)     1.76151      -0.27489
 
   116    O   24  S      Cor( 1S)     1.99999     -20.20739
   117    O   24  S      Val( 2S)     1.72979      -1.02013
   118    O   24  px     Val( 2p)     1.80559      -0.34800
   119    O   24  py     Val( 2p)     1.50916      -0.22052
   120    O   24  pz     Val( 2p)     1.22321      -0.09316
 
   121    C   25  S      Cor( 1S)     1.99984     -11.04019
   122    C   25  S      Val( 2S)     1.07653      -0.22152
   123    C   25  px     Val( 2p)     1.03091       0.04765
   124    C   25  py     Val( 2p)     1.04449       0.04027
   125    C   25  pz     Val( 2p)     0.81316       0.09160
 
   126    C   26  S      Cor( 1S)     1.99992     -11.00948
   127    C   26  S      Val( 2S)     1.06508      -0.18981
   128    C   26  px     Val( 2p)     0.94599       0.08741
   129    C   26  py     Val( 2p)     0.97416       0.07768
   130    C   26  pz     Val( 2p)     1.03120       0.06682
 
   131    C   27  S      Cor( 1S)     1.99995     -10.97569
   132    C   27  S      Val( 2S)     1.08256      -0.18058
   133    C   27  px     Val( 2p)     0.97937       0.10341
   134    C   27  py     Val( 2p)     1.02889       0.09158
   135    C   27  pz     Val( 2p)     0.99585       0.09959
 
   136    C   28  S      Cor( 1S)     1.99990     -10.95085
   137    C   28  S      Val( 2S)     1.07815      -0.17748
   138    C   28  px     Val( 2p)     0.95529       0.13040
   139    C   28  py     Val( 2p)     0.96027       0.18194
   140    C   28  pz     Val( 2p)     0.99005       0.07212
 
   141    C   29  S      Cor( 1S)     1.99993     -10.93824
   142    C   29  S      Val( 2S)     1.08262      -0.17066
   143    C   29  px     Val( 2p)     0.99324       0.10895
   144    C   29  py     Val( 2p)     0.98790       0.16220
   145    C   29  pz     Val( 2p)     0.99103       0.07255
 
   146    C   30  S      Cor( 1S)     1.99994     -10.94431
   147    C   30  S      Val( 2S)     1.08405      -0.17868
   148    C   30  px     Val( 2p)     0.98055       0.11700
   149    C   30  py     Val( 2p)     0.97601       0.16117
   150    C   30  pz     Val( 2p)     0.99157       0.06706
 
   151    C   31  S      Cor( 1S)     1.99993     -10.93867
   152    C   31  S      Val( 2S)     1.07185      -0.17094
   153    C   31  px     Val( 2p)     1.00832       0.10280
   154    C   31  py     Val( 2p)     0.97257       0.16520
   155    C   31  pz     Val( 2p)     1.03483       0.05268
 
   156    C   32  S      Cor( 1S)     1.99985     -10.98598
   157    C   32  S      Val( 2S)     1.06055      -0.18452
   158    C   32  px     Val( 2p)     0.90044       0.11856
   159    C   32  py     Val( 2p)     0.97844       0.15894
   160    C   32  pz     Val( 2p)     0.95087       0.06778
 
   161    C   33  S      Cor( 1S)     1.99990     -10.94476
   162    C   33  S      Val( 2S)     1.08115      -0.18511
   163    C   33  px     Val( 2p)     0.99011       0.12189
   164    C   33  py     Val( 2p)     0.94254       0.15348
   165    C   33  pz     Val( 2p)     1.01109       0.07100
 
   166    N   34  S      Cor( 1S)     1.99998     -15.27202
   167    N   34  S      Val( 2S)     1.41053      -0.59995
   168    N   34  px     Val( 2p)     1.50390      -0.15429
   169    N   34  py     Val( 2p)     1.06321       0.01424
   170    N   34  pz     Val( 2p)     1.29668      -0.07606
 
   171    C   35  S      Cor( 1S)     1.99996     -11.01804
   172    C   35  S      Val( 2S)     1.10689      -0.24152
   173    C   35  px     Val( 2p)     0.97576       0.06314
   174    C   35  py     Val( 2p)     0.95902       0.10288
   175    C   35  pz     Val( 2p)     0.94147       0.09595
 
   176    C   36  S      Cor( 1S)     1.99996     -11.05767
   177    C   36  S      Val( 2S)     1.11124      -0.26351
   178    C   36  px     Val( 2p)     0.92671       0.07629
   179    C   36  py     Val( 2p)     0.84390       0.11606
   180    C   36  pz     Val( 2p)     0.94658       0.07751
 
   181    C   37  S      Cor( 1S)     1.99991     -11.03852
   182    C   37  S      Val( 2S)     1.11913      -0.25840
   183    C   37  px     Val( 2p)     1.01884       0.05619
   184    C   37  py     Val( 2p)     0.91224       0.07067
   185    C   37  pz     Val( 2p)     0.87873       0.09445
 
   186    C   38  S      Cor( 1S)     1.99994     -10.98575
   187    C   38  S      Val( 2S)     1.10307      -0.22002
   188    C   38  px     Val( 2p)     0.99786       0.07662
   189    C   38  py     Val( 2p)     0.98916       0.08130
   190    C   38  pz     Val( 2p)     0.99864       0.07438
 
   191    C   39  S      Cor( 1S)     1.99996     -10.98804
   192    C   39  S      Val( 2S)     1.09201      -0.21036
   193    C   39  px     Val( 2p)     1.00902       0.07701
   194    C   39  py     Val( 2p)     0.97366       0.08105
   195    C   39  pz     Val( 2p)     0.99771       0.07861
 
   196    C   40  S      Cor( 1S)     1.99998     -11.02393
   197    C   40  S      Val( 2S)     1.10714      -0.24757
   198    C   40  px     Val( 2p)     0.94494       0.09012
   199    C   40  py     Val( 2p)     0.95261       0.08913
   200    C   40  pz     Val( 2p)     0.94574       0.08675
 
   201    N   41  S      Cor( 1S)     1.99999     -15.41754
   202    N   41  S      Val( 2S)     1.40420      -0.65988
   203    N   41  px     Val( 2p)     1.21355      -0.11298
   204    N   41  py     Val( 2p)     1.13586      -0.09080
   205    N   41  pz     Val( 2p)     1.21360      -0.11636
 
   206    C   42  S      Cor( 1S)     1.99990     -11.03162
   207    C   42  S      Val( 2S)     1.08969      -0.22942
   208    C   42  px     Val( 2p)     1.01055       0.06015
   209    C   42  py     Val( 2p)     0.83776       0.08935
   210    C   42  pz     Val( 2p)     1.01799       0.05542
 
   211    C   43  S      Cor( 1S)     1.99997     -10.99405
   212    C   43  S      Val( 2S)     1.07979      -0.20372
   213    C   43  px     Val( 2p)     1.00396       0.07499
   214    C   43  py     Val( 2p)     1.02265       0.06976
   215    C   43  pz     Val( 2p)     0.96840       0.08198
 
   216    C   44  S      Cor( 1S)     1.99995     -10.99146
   217    C   44  S      Val( 2S)     1.09018      -0.21024
   218    C   44  px     Val( 2p)     1.01447       0.07514
   219    C   44  py     Val( 2p)     0.97593       0.08108
   220    C   44  pz     Val( 2p)     0.99007       0.07700
 
   221    C   45  S      Cor( 1S)     1.99995     -10.98873
   222    C   45  S      Val( 2S)     1.09079      -0.20732
   223    C   45  px     Val( 2p)     1.02013       0.07801
   224    C   45  py     Val( 2p)     0.97204       0.08130
   225    C   45  pz     Val( 2p)     0.99900       0.07536
 
   226    C   46  S      Cor( 1S)     1.99992     -11.02233
   227    C   46  S      Val( 2S)     1.09155      -0.22306
   228    C   46  px     Val( 2p)     0.85730       0.09796
   229    C   46  py     Val( 2p)     0.99353       0.06244
   230    C   46  pz     Val( 2p)     1.02428       0.05635
 
   231    C   47  S      Cor( 1S)     1.99993     -10.99904
   232    C   47  S      Val( 2S)     1.10226      -0.22842
   233    C   47  px     Val( 2p)     0.97264       0.07018
   234    C   47  py     Val( 2p)     0.96733       0.07875
   235    C   47  pz     Val( 2p)     1.02910       0.06079
 
   236    C   48  S      Cor( 1S)     1.99994     -11.01778
[...]

 Contributions to Isotropic shielding for atom   95 (    31.7084 ppm):
                         Standard Origin              Atomic Origin
 NLMO      Total    Paramagnetic  Diamagnetic   Paramagnetic  Diamagnetic
   38      -0.1814       -1.0411       0.8597        -0.5865       0.4051
   89       0.1395       -0.2468       0.3863        -0.9220       1.0616
   99       0.5878       -1.2710       1.8588        -0.4063       0.9941
  102       1.5561       -0.4264       1.9825         0.8173       0.7388
  105       1.8555       -1.4370       3.2925         0.9608       0.8947
  106       1.7479        1.3290       0.4188        -0.0533       1.8012
  107      25.6866        0.6504      25.0362         0.3077      25.3789
  109      -0.0210       -0.8171       0.7962        -1.0787       1.0577
 Sum       31.3710       -3.2601      34.6311        -0.9611      32.3321

 Contributions to Isotropic shielding for atom   96 (    32.4596 ppm):
                         Standard Origin              Atomic Origin
 NLMO      Total    Paramagnetic  Diamagnetic   Paramagnetic  Diamagnetic
   97       0.9187        1.5804      -0.6617         0.0172       0.9015
   98      -0.3733        0.9750      -1.3483        -1.6248       1.2515
  105       0.6371        2.5946      -1.9575        -0.3565       0.9936
  106       0.1104        0.2033      -0.0929        -0.9507       1.0612
  108      26.5485       -0.5067      27.0551         0.6657      25.8827
  109       2.1759        1.9361       0.2398         0.3535       1.8224
  117       0.0439       -1.1514       1.1953        -0.9030       0.9469
 Sum       30.0611        5.6313      24.4298        -2.7987      32.8598

 Contributions to Isotropic shielding for atom   97 (    32.2905 ppm):
                         Standard Origin              Atomic Origin
 NLMO      Total    Paramagnetic  Diamagnetic   Paramagnetic  Diamagnetic
   94      -0.1910       -0.2223       0.0313        -1.3874       1.1964
   97       1.8870       -0.9077       2.7948         1.0553       0.8317
  105       1.3306       -0.2000       1.5306         0.2192       1.1114
  107       0.0748       -0.7368       0.8116        -1.0219       1.0967
  108       1.6345        2.5507      -0.9162        -0.1810       1.8155
  109      26.1667        0.3565      25.8102         0.4320      25.7347
 Sum       30.9026        0.8404      30.0622        -0.8838      31.7865

 Contributions to Isotropic shielding for atom   98 (    31.7602 ppm):
                         Standard Origin              Atomic Origin
 NLMO      Total    Paramagnetic  Diamagnetic   Paramagnetic  Diamagnetic
   71      -1.0010        0.1356      -1.1366        -2.1449       1.1439
   80      -0.1206        0.9536      -1.0741        -1.2073       1.0868
   85       2.1324       -1.7161       3.8485         1.3566       0.7758
   89      -0.0789        0.1267      -0.2056        -1.0490       0.9701
  100       0.6268       -0.9373       1.5640         0.0126       0.6142
  111      25.7157        0.1274      25.5883         0.5144      25.2013
  112       1.6725        2.5301      -0.8576        -0.3110       1.9834
  113      -0.0623       -0.9334       0.8710        -1.1665       1.1041
  121       0.0680       -1.0019       1.0699        -0.7221       0.7901
 Sum       28.9526       -0.7152      29.6678        -4.7172      33.6698

 Contributions to Isotropic shielding for atom   99 (    32.7613 ppm):
                         Standard Origin              Atomic Origin
 NLMO      Total    Paramagnetic  Diamagnetic   Paramagnetic  Diamagnetic
   71      -0.2819        0.0660      -0.3479        -1.0215       0.7396
   83      -0.3872        1.2548      -1.6420        -0.9739       0.5867
   85       1.2598        0.0209       1.2389         0.5378       0.7220
   87      -0.3366        0.0448      -0.3814        -1.1589       0.8223
   89      -0.2174        0.3113      -0.5286        -1.1529       0.9355
  100       0.4686       -0.7476       1.2162         0.4579       0.0107
  110       0.3181        2.4577      -2.1396        -0.3140       0.6321
  111       2.0388        2.4328      -0.3940         0.1519       1.8869
  112      26.0462       -0.1834      26.2295         0.5776      25.4685
  114      -0.0200       -0.0861       0.0661        -1.0564       1.0364
  118       0.6751       -1.0658       1.7409        -0.1215       0.7966
  120       1.1738       -0.4481       1.6219         0.3018       0.8720
  121      -0.2117       -2.7026       2.4909        -1.1875       0.9758
  123       0.3277       -0.8910       1.2187        -0.4454       0.7731
  126       0.0516       -1.8120       1.8636        -0.4228       0.4744
  191      -0.4536        1.0776      -1.5312         0.3630      -0.8166
 Sum       30.4514       -0.2705      30.7219        -5.4647      35.9160

 Contributions to Isotropic shielding for atom  100 (    30.6407 ppm):
                         Standard Origin              Atomic Origin
 NLMO      Total    Paramagnetic  Diamagnetic   Paramagnetic  Diamagnetic
   99      -0.5631        0.8863      -1.4493        -1.2624       0.6994
  100       1.2371       -0.5755       1.8126         0.3309       0.9062
  101      -0.0277        0.9732      -1.0009        -1.0269       0.9991
  111      -0.0632        0.3305      -0.3936        -1.2560       1.1928
  113      25.8321        0.4365      25.3956         0.9520      24.8801
  114       0.9080        2.3465      -1.4384        -0.8133       1.7213
  121       0.0657       -1.0616       1.1273        -0.5483       0.6140
  195       0.3824       -1.2181       1.6005         1.1840      -0.8017
 Sum       27.7714        2.1177      25.6537        -2.4399      30.2113

 Contributions to Isotropic shielding for atom  101 (    31.4665 ppm):
                         Standard Origin              Atomic Origin
 NLMO      Total    Paramagnetic  Diamagnetic   Paramagnetic  Diamagnetic
   99      -0.6485        1.3146      -1.9631        -1.7610       1.1125
  100       1.1589       -0.5670       1.7259         0.6190       0.5399
  104      -0.0576       -1.5980       1.5404        -0.6981       0.6406
  113       1.3355        2.6799      -1.3444        -0.5783       1.9137
  114      26.5617        0.1937      26.3680         1.1418      25.4199
  116      -0.4119       -1.8682       1.4562        -0.5109       0.0990
  120       0.8172       -0.6500       1.4671         0.4405       0.3767
  121       0.2771       -2.5506       2.8276        -0.7052       0.9823
  191      -0.8249        1.5338      -2.3587         0.1628      -0.9877
 Sum       28.2074       -1.5117      29.7191        -1.8895      30.0969

 Contributions to Isotropic shielding for atom  102 (    31.8007 ppm):
                         Standard Origin              Atomic Origin
 NLMO      Total    Paramagnetic  Diamagnetic   Paramagnetic  Diamagnetic
   87       0.3422       -0.9312       1.2734         0.0715       0.2707
   89      -0.3788        0.5844      -0.9632        -1.0589       0.6800
   97      -0.1832        1.2843      -1.4675        -0.9185       0.7353
   98       1.7914       -1.0227       2.8140         0.8379       0.9535
  104      -0.1963       -1.5719       1.3757        -0.3630       0.1667
  114      -0.2738       -1.9792       1.7054        -0.2384      -0.0354
  115       0.3879        2.0410      -1.6531        -0.4679       0.8557
  116      26.3214       -0.0673      26.3886         0.6353      25.6860
  117       1.5752        3.2776      -1.7024        -0.3046       1.8798
  118       0.0427        0.0320       0.0107        -1.0229       1.0656
  120       0.4783       -1.5472       2.0256        -0.4007       0.8790
  121       0.5971       -2.4666       3.0637        -1.0702       1.6674
  191      -0.7079        1.0537      -1.7616         0.1769      -0.8848
 Sum       29.7962       -1.3131      31.1093        -4.1234      33.9196

 Contributions to Isotropic shielding for atom  103 (    32.1466 ppm):
                         Standard Origin              Atomic Origin
 NLMO      Total    Paramagnetic  Diamagnetic   Paramagnetic  Diamagnetic
   87       0.4128       -0.8644       1.2772         0.2211       0.1917
   94      -0.1691        1.2424      -1.4116        -1.0089       0.8398
   97      -0.2055        1.4033      -1.6088        -1.0665       0.8611
   98       1.9082       -0.7492       2.6575         0.9500       0.9582
  115       0.4189        2.3421      -1.9232        -0.6845       1.1034
  116       1.6187        2.9707      -1.3520        -0.2802       1.8989
  117      26.4578       -0.2939      26.7516         0.6427      25.8151
  119      -0.1708       -0.7351       0.5643        -1.3201       1.1492
  121       0.2424       -0.8644       1.1069        -0.7587       1.0011
 Sum       30.5134        4.4515      26.0619        -3.3051      33.8186

 Contributions to Isotropic shielding for atom  104 (    31.2043 ppm):
                         Standard Origin              Atomic Origin
 NLMO      Total    Paramagnetic  Diamagnetic   Paramagnetic  Diamagnetic
   81      -0.4840        1.2635      -1.7475        -1.1547       0.6706
   86      -0.3323        1.3999      -1.7322        -1.4420       1.1097
   87       2.0960       -0.4796       2.5757         1.1386       0.9574
   98       0.3045       -0.8384       1.1429         0.1125       0.1920
  115       1.3874        1.1920       0.1954         0.1925       1.1948
  117      -0.2520        0.0149      -0.2669        -1.4231       1.1711
  118      -0.0568        4.7315      -4.7883        -0.9437       0.8869
  119      25.9398       -0.5937      26.5335         0.4439      25.4959
  122       1.0431       -2.3027       3.3458        -0.6426       1.6857
  126       0.1539       -0.9334       1.0873        -0.2993       0.4532
  127      -0.2284       -2.0670       1.8387        -0.6590       0.4306
  193      -0.8926        0.4406      -1.3332         0.1248      -1.0174
  194      -0.2355       -1.0315       0.7960        -0.8217       0.5862
 Sum       28.4431        0.7960      27.6471        -5.3737      33.8168

 Contributions to Isotropic shielding for atom  105 (    30.5760 ppm):
                         Standard Origin              Atomic Origin
 NLMO      Total    Paramagnetic  Diamagnetic   Paramagnetic  Diamagnetic
  120      -1.3700        0.9937      -2.3637        -2.2665       0.8965
  121      -0.6226        2.3143      -2.9369        -2.1774       1.5548
  122      -2.0771        1.5773      -3.6544        -2.8619       0.7847
  123       1.4537       -0.2536       1.7073        -0.0104       1.4641
  124      26.5078        0.6692      25.8385         1.2844      25.2234
  125       1.1512        4.5644      -3.4132        -0.8915       2.0427
  126       1.3372        1.2934       0.0438        -0.5349       1.8721
  191       0.6415       -1.7410       2.3825         1.4208      -0.7792
  192       0.8450        1.0380      -0.1930         1.0632      -0.2182
  193       1.5924       -1.2212       2.8136         1.6536      -0.0611
  194       0.5384        1.1057      -0.5673         0.0638       0.4746
 Sum       29.9974       10.3402      19.6571        -3.2569      33.2543

 Contributions to Isotropic shielding for atom  106 (    30.5163 ppm):
                         Standard Origin              Atomic Origin
 NLMO      Total    Paramagnetic  Diamagnetic   Paramagnetic  Diamagnetic
  120      -0.6855        0.3493      -1.0348        -1.3042       0.6186
  121      -0.1562        1.1376      -1.2938        -1.1864       1.0302
  122      -0.6045        0.4825      -1.0870        -0.6390       0.0345
  123       1.1003        0.6581       0.4423        -0.9747       2.0751
  124       0.5300        3.9533      -3.4233        -1.4561       1.9861
  125      26.0119        0.3651      25.6468         0.8443      25.1676
  126       1.2129        1.4617      -0.2488        -0.7826       1.9955
  191       0.2688       -0.7882       1.0570         0.6517      -0.3829
  193       1.0896       -0.9930       2.0826         1.5575      -0.4678
  194       1.0718        0.5049       0.5669         0.8157       0.2562
 Sum       29.8391        7.1314      22.7077        -2.4740      32.3131

 Contributions to Isotropic shielding for atom  107 (    30.6331 ppm):
                         Standard Origin              Atomic Origin
 NLMO      Total    Paramagnetic  Diamagnetic   Paramagnetic  Diamagnetic
  120      -1.0334        0.7458      -1.7793        -1.9316       0.8982
  121      -0.4470        1.5603      -2.0073        -1.9781       1.5311
  122      -1.4989        1.5577      -3.0566        -2.3463       0.8474
  123       2.8423       -4.9243       7.7666         1.4261       1.4162
  124       1.0677        1.8258      -0.7581        -0.8079       1.8756
  125       1.4384        2.0671      -0.6287        -0.6068       2.0452
  126      26.1878        1.0013      25.1865         1.0265      25.1614
  191       0.3864       -1.1669       1.5533         1.1589      -0.7724
  193       0.9780       -0.0636       1.0416         1.0277      -0.0498
 Sum       29.9213        2.6033      27.3181        -3.0315      32.9528

 Contributions to Isotropic shielding for atom  108 (    31.0077 ppm):
                         Standard Origin              Atomic Origin
 NLMO      Total    Paramagnetic  Diamagnetic   Paramagnetic  Diamagnetic
   76      -0.4688       -0.0367      -0.4321        -1.3226       0.8538
   81      -0.4308        0.8507      -1.2815        -1.1611       0.7303
   82       1.1608       -0.0150       1.1759        -0.0367       1.1975
   87      -0.2184        0.9359      -1.1543        -1.0986       0.8802
  118      -0.3224        0.4506      -0.7731        -1.0498       0.7273
  122       1.1272       -1.1119       2.2391         0.5505       0.5768
  125       0.0700       -1.2843       1.3544        -0.6511       0.7211
  127      25.9995        0.2103      25.7892         0.6548      25.3447
  128       1.4876        3.8458      -2.3582        -0.4962       1.9838
  129       1.7492        0.5395       1.2098        -0.0833       1.8325
  193      -1.0361        0.5643      -1.6004         0.2531      -1.2892
 Sum       29.1178        4.9491      24.1687        -4.4410      33.5588

 Contributions to Isotropic shielding for atom  109 (    30.7979 ppm):
                         Standard Origin              Atomic Origin
 NLMO      Total    Paramagnetic  Diamagnetic   Paramagnetic  Diamagnetic
   75      -0.5548        0.6449      -1.1997        -1.2645       0.7097
   76      -0.8584        0.2196      -1.0780        -2.2144       1.3559
   79      -0.4323        0.7021      -1.1344        -1.0734       0.6411
   82       1.1560        0.5786       0.5774        -0.1056       1.2616
  122       0.6582       -0.5183       1.1765         0.3411       0.3171
  125       0.0108       -1.1621       1.1729        -0.6000       0.6108
  127       1.5329        3.7912      -2.2583        -0.4356       1.9685
  128      26.0434        0.1167      25.9267         0.7064      25.3370
  129       1.7234        0.9500       0.7734        -0.0750       1.7984
 Sum       29.2792        5.3226      23.9566        -4.7209      34.0001

 Contributions to Isotropic shielding for atom  110 (    32.0229 ppm):
                         Standard Origin              Atomic Origin
 NLMO      Total    Paramagnetic  Diamagnetic   Paramagnetic  Diamagnetic
   76      -0.7037       -0.1735      -0.5302        -1.9212       1.2175
   79      -0.3716        0.5190      -0.8905        -1.0412       0.6696
   82       2.0387       -3.1529       5.1916         1.2778       0.7609
   86      -0.1940        0.5450      -0.7390        -1.2118       1.0178
  122       0.5288       -0.5832       1.1120        -0.0536       0.5824
  127       1.8259        1.3197       0.5062        -0.0919       1.9178
  128       1.8145        1.9507      -0.1362        -0.0838       1.8982
  129      26.3884        0.8250      25.5634         0.7048      25.6835
 Sum       31.3271        1.2497      30.0774        -2.4208      33.7479
 
 1\1\GINC-PCSN02\SP\RHF\STO-3G\C45H56N4O5\ABENIDD\30-May-2024\0\\# nmr=
 giao hf/sto-3g pop=nbo geom=connectivity\\pleiokomenine_C_1a\\0,1\C,0,
 0.,0.,0.\C,0,1.4022,0.,0.\C,0,2.0945,1.2296,0.\C,0,1.409,2.4528,-0.009
 9\C,0,0.0255,2.4442,-0.0082\C,0,-0.6627,1.2157,0.022\N,0,-0.8645,3.556
 5,-0.0301\C,0,-2.1316,1.5063,0.1992\C,0,-2.1366,2.9252,-0.474\C,0,-3.2
 096,0.641,-0.4524\C,0,-2.0847,2.749,-2.0598\C,0,-3.2626,1.9211,-2.5781
 \C,0,-4.1217,1.4574,-1.3956\N,0,-4.0536,0.2187,0.6676\C,0,-4.9772,-0.8
 286,0.2931\C,0,-5.9659,-0.2131,-0.7124\C,0,-5.2762,0.5403,-1.8663\C,0,
 -2.3903,1.3272,1.7204\C,0,-3.1808,0.019,1.7998\C,0,-4.6374,2.7522,-0.6
 729\C,0,-3.4592,3.6853,-0.2372\C,0,-3.6743,4.2884,1.1416\O,0,-4.5774,3
 .9907,1.9134\O,0,-2.7809,5.2912,1.3745\C,0,-2.9012,5.8972,2.6606\C,0,-
 0.3709,4.7744,-0.6526\C,0,2.1572,-1.3103,0.0877\C,0,2.2109,-1.857,1.49
 82\C,0,1.0969,-2.5177,2.0308\C,0,3.3533,-1.6705,2.3047\C,0,3.389,-2.11
 75,3.6341\C,0,2.2637,-2.7211,4.1673\C,0,1.1348,-2.9226,3.354\N,0,2.042
 5,-3.1664,5.5035\C,0,0.0859,-3.6548,4.1491\C,0,0.5589,-3.1715,5.5746\C
 ,0,-1.4039,-3.326,3.9798\C,0,0.0543,-1.6838,5.8185\C,0,-1.4695,-1.5937
 ,5.7529\C,0,-2.0599,-2.961,5.3462\N,0,-2.0229,-4.5252,3.2748\C,0,-3.46
 28,-4.7706,3.6625\C,0,-4.1737,-3.4687,3.9666\C,0,-3.5994,-2.8396,5.235
 8\C,0,0.2413,-5.1388,3.7494\C,0,-1.158,-5.7002,3.6334\C,0,-1.6409,-3.9
 529,6.4835\C,0,-0.0978,-3.9766,6.7096\C,0,0.4335,-5.3793,6.9346\O,0,-0
 .1527,-6.4057,6.6145\O,0,1.6212,-5.3465,7.5981\C,0,2.21,-6.6295,7.8122
 \C,0,2.8463,-2.5303,6.5371\O,0,-1.9694,-4.3135,1.9104\H,0,-0.5582,-0.9
 307,0.0358\H,0,3.1821,1.2388,0.0232\H,0,1.9671,3.3816,-0.0027\H,0,-2.7
 643,-0.2209,-0.9682\H,0,-1.1515,2.2805,-2.3963\H,0,-2.0981,3.7323,-2.5
 486\H,0,-3.8584,2.5177,-3.2801\H,0,-2.8831,1.0626,-3.1465\H,0,-4.4617,
 -1.6921,-0.1437\H,0,-5.5385,-1.1832,1.165\H,0,-6.6267,0.4853,-0.1824\H
 ,0,-6.6103,-0.9993,-1.1223\H,0,-4.8766,-0.2102,-2.5616\H,0,-6.0216,1.1
 168,-2.4269\H,0,-2.9954,2.131,2.137\H,0,-1.4866,1.2643,2.3384\H,0,-2.5
 334,-0.8566,1.6808\H,0,-3.7251,-0.0588,2.7455\H,0,-5.2876,3.3127,-1.35
 84\H,0,-5.2752,2.4868,0.1765\H,0,-3.496,4.5575,-0.908\H,0,-2.7794,5.15
 09,3.452\H,0,-2.1043,6.6393,2.761\H,0,-3.8644,6.4085,2.7528\H,0,0.0484
 ,4.5884,-1.6478\H,0,0.4011,5.2368,-0.0283\H,0,-1.1758,5.508,-0.7605\H,
 0,3.1745,-1.1828,-0.3046\H,0,1.6878,-2.0493,-0.5753\H,0,0.2137,-2.7134
 ,1.4274\H,0,4.225,-1.1617,1.8991\H,0,4.2815,-1.9593,4.2278\H,0,-1.5503
 ,-2.488,3.2843\H,0,0.3894,-1.3238,6.8002\H,0,0.4802,-0.9761,5.0965\H,0
 ,-1.8648,-1.2757,6.7262\H,0,-1.7567,-0.8143,5.0351\H,0,-3.9247,-5.2988
 ,2.8207\H,0,-3.482,-5.4317,4.5343\H,0,-5.2467,-3.6442,4.1003\H,0,-4.06
 56,-2.7724,3.1266\H,0,-4.0719,-3.3112,6.1069\H,0,-3.9176,-1.7898,5.262
 9\H,0,0.7067,-5.2425,2.7589\H,0,0.8766,-5.7209,4.4196\H,0,-1.2629,-6.4
 534,2.8458\H,0,-1.5112,-6.1156,4.576\H,0,-2.0495,-4.9474,6.2927\H,0,-2
 .1109,-3.6367,7.4258\H,0,0.0793,-3.4642,7.6677\H,0,1.5774,-7.2343,8.46
 92\H,0,3.1765,-6.481,8.3014\H,0,2.3796,-7.1392,6.8585\H,0,2.497,-2.821
 3,7.5323\H,0,3.8908,-2.8508,6.4589\H,0,2.8095,-1.4368,6.476\\Version=E
 S64L-G16RevB.01\State=1-A\HF=-2300.2145021\RMSD=3.723e-09\Dipole=0.305
 3475,0.2956211,1.4979817\Quadrupole=-6.0514223,-2.8380326,8.8894549,1.
 7575976,3.6936984,-13.7359602\PG=C01 [X(C45H56N4O5)]\\@


 THE 2ND LAW OF THERMODYNAMICS HAS THE SAME
 DEGREE OF TRUTH AS THE STATEMENT THAT IF YOU THROW
 A TUMBLERFULL OF WATER INTO THE SEA, YOU CANNOT GET
 THE SAME TUMBLERFULL OF WATER OUT AGAIN.
          - J.C. MAXWELL, LETTER TO LORD RAYLEIGH, DECEMBER 6,1870
 Job cpu time:       0 days  0 hours 11 minutes 53.1 seconds.
 Elapsed time:       0 days  0 hours  1 minutes 59.8 seconds.
 File lengths (MBytes):  RWF=     67 Int=      0 D2E=      0 Chk=     10 Scr=      1
 Normal termination of Gaussian 16 at Thu May 30 09:04:51 2024.
