 Entering Gaussian System, Link 0=g16
 Input=1_pleiokomenine_1a_c_8.gjf
 Output=1_pleiokomenine_1a_c_8.log
 Initial command:
 /opt/gaussian/g16/l1.exe "/data/abenidd/Elvis/pleiokomenine_C/NMR_HF/1a/1_pleiokomenine_1a_c_8/Gau-26432.inp" -scrdir="/data/abenidd/Elvis/pleiokomenine_C/NMR_HF/1a/1_pleiokomenine_1a_c_8/"
 Entering Link 1 = /opt/gaussian/g16/l1.exe PID=     26434.
  
 Copyright (c) 1988-2017, Gaussian, Inc.  All Rights Reserved.
  
 This is part of the Gaussian(R) 16 program.  It is based on
 the Gaussian(R) 09 system (copyright 2009, Gaussian, Inc.),
 the Gaussian(R) 03 system (copyright 2003, Gaussian, Inc.),
 the Gaussian(R) 98 system (copyright 1998, Gaussian, Inc.),
 the Gaussian(R) 94 system (copyright 1995, Gaussian, Inc.),
 the Gaussian 92(TM) system (copyright 1992, Gaussian, Inc.),
 the Gaussian 90(TM) system (copyright 1990, Gaussian, Inc.),
 the Gaussian 88(TM) system (copyright 1988, Gaussian, Inc.),
 the Gaussian 86(TM) system (copyright 1986, Carnegie Mellon
 University), and the Gaussian 82(TM) system (copyright 1983,
 Carnegie Mellon University). Gaussian is a federally registered
 trademark of Gaussian, Inc.
  
 This software contains proprietary and confidential information,
 including trade secrets, belonging to Gaussian, Inc.
  
 This software is provided under written license and may be
 used, copied, transmitted, or stored only in accord with that
 written license.
  
 The following legend is applicable only to US Government
 contracts under FAR:
  
                    RESTRICTED RIGHTS LEGEND
  
 Use, reproduction and disclosure by the US Government is
 subject to restrictions as set forth in subparagraphs (a)
 and (c) of the Commercial Computer Software - Restricted
 Rights clause in FAR 52.227-19.
  
 Gaussian, Inc.
 340 Quinnipiac St., Bldg. 40, Wallingford CT 06492
  
  
 ---------------------------------------------------------------
 Warning -- This program may not be used in any manner that
 competes with the business of Gaussian, Inc. or will provide
 assistance to any competitor of Gaussian, Inc.  The licensee
 of this program is prohibited from giving any competitor of
 Gaussian, Inc. access to this program.  By using this program,
 the user acknowledges that Gaussian, Inc. is engaged in the
 business of creating and licensing software in the field of
 computational chemistry and represents and warrants to the
 licensee that it is not a competitor of Gaussian, Inc. and that
 it will not use this program in any manner prohibited above.
 ---------------------------------------------------------------
  

 Cite this work as:
 Gaussian 16, Revision B.01,
 M. J. Frisch, G. W. Trucks, H. B. Schlegel, G. E. Scuseria, 
 M. A. Robb, J. R. Cheeseman, G. Scalmani, V. Barone, 
 G. A. Petersson, H. Nakatsuji, X. Li, M. Caricato, A. V. Marenich, 
 J. Bloino, B. G. Janesko, R. Gomperts, B. Mennucci, H. P. Hratchian, 
 J. V. Ortiz, A. F. Izmaylov, J. L. Sonnenberg, D. Williams-Young, 
 F. Ding, F. Lipparini, F. Egidi, J. Goings, B. Peng, A. Petrone, 
 T. Henderson, D. Ranasinghe, V. G. Zakrzewski, J. Gao, N. Rega, 
 G. Zheng, W. Liang, M. Hada, M. Ehara, K. Toyota, R. Fukuda, 
 J. Hasegawa, M. Ishida, T. Nakajima, Y. Honda, O. Kitao, H. Nakai, 
 T. Vreven, K. Throssell, J. A. Montgomery, Jr., J. E. Peralta, 
 F. Ogliaro, M. J. Bearpark, J. J. Heyd, E. N. Brothers, K. N. Kudin, 
 V. N. Staroverov, T. A. Keith, R. Kobayashi, J. Normand, 
 K. Raghavachari, A. P. Rendell, J. C. Burant, S. S. Iyengar, 
 J. Tomasi, M. Cossi, J. M. Millam, M. Klene, C. Adamo, R. Cammi, 
 J. W. Ochterski, R. L. Martin, K. Morokuma, O. Farkas, 
 J. B. Foresman, and D. J. Fox, Gaussian, Inc., Wallingford CT, 2016.
 
 ******************************************
 Gaussian 16:  ES64L-G16RevB.01 20-Dec-2017
                30-May-2024 
 ******************************************
 %nprocshared=8
 Will use up to    8 processors via shared memory.
 ----------------------------------------------
 # nmr=giao hf/sto-3g pop=nbo geom=connectivity
 ----------------------------------------------
 1/38=1,57=2,172=1/1;
 2/12=2,17=6,18=5,40=1/2;
 3/6=3,11=9,25=1,30=1/1,2,3,8;
 4//1;
 5/5=2,38=5/2;
 8/6=1,10=90,11=11/1;
 10/13=100,45=16/2;
 6/7=2,8=2,9=2,10=2,28=1,40=1,64=1/1,7;
 99/9=1/99;
 ------------------
 pleiokomenine_C_1a
 ------------------
 Symbolic Z-matrix:
 Charge =  0 Multiplicity = 1
 C                     0.        0.        0. 
 C                     1.4013    0.        0. 
 C                     2.0942    1.2293    0. 
 C                     1.409     2.4528   -0.0285 
 C                     0.0271    2.4424   -0.0878 
 C                    -0.6623    1.2138   -0.052 
 N                    -0.8603    3.5414   -0.2389 
 C                    -2.1429    1.5      -0.0709 
 C                    -2.0648    2.8849   -0.8061 
 C                    -3.115     0.5901   -0.8231 
 C                    -1.8056    2.6409   -2.3648 
 C                    -2.8988    1.7769   -2.994 
 C                    -3.8994    1.3513   -1.9139 
 N                    -4.1024    0.2042    0.1938 
 C                    -4.9375   -0.8843   -0.264 
 C                    -5.795    -0.329    -1.4144 
 C                    -4.9717    0.3979   -2.4947 
 C                    -2.6161    1.3934    1.4019 
 C                    -3.3783    0.0664    1.4364 
 C                    -4.5128    2.6654   -1.3143 
 C                    -3.4089    3.6419   -0.7807 
 C                    -3.7983    4.335     0.5182 
 O                    -3.0421    4.6808    1.414 
 O                    -5.1332    4.6382    0.5051 
 C                    -5.5884    5.3159    1.6765 
 C                    -0.3383    4.7799   -0.7803 
 C                     2.1521   -1.3121   -0.0713 
 C                     2.3007   -1.8267   -1.4882 
 C                     1.1909   -2.3596   -2.1595 
 C                     3.5288   -1.7169   -2.17 
 C                     3.6608   -2.1385   -3.5004 
 C                     2.5579   -2.6639   -4.153 
 C                     1.3266   -2.7443   -3.4833 
 N                     2.4794   -3.1613   -5.4803 
 C                     0.2661   -3.2001   -4.4546 
 C                     1.2325   -3.9622   -5.4501 
 C                    -0.8545   -4.1547   -4.009 
 C                     1.5423   -5.4034   -4.8512 
 C                     0.2597   -6.2382   -4.72 
 C                    -0.9575   -5.3403   -5.028 
 N                    -2.0972   -3.2883   -3.8754 
 C                    -3.388    -4.0634   -3.9126 
 C                    -3.4665   -5.1631   -4.9535 
 C                    -2.2721   -6.103    -4.8372 
 C                    -0.4713   -1.9212   -4.934 
 C                    -1.9563   -2.2578   -4.9504 
 C                    -0.7863   -4.9305   -6.5313 
 C                     0.5766   -4.249    -6.8093 
 C                     0.443    -3.0799   -7.769 
 O                    -0.6094   -2.5061   -8.0231 
 O                     1.6351   -2.8007   -8.363 
 C                     1.6014   -1.6817   -9.2488 
 C                     3.7092   -3.69     -6.051 
 O                    -2.0798   -2.6418   -2.646 
 H                    -0.5607   -0.93      0.0074 
 H                     3.1817    1.2382   -0.0001 
 H                     1.9663    3.3817   -0.0399 
 H                    -2.5974   -0.2855   -1.2358 
 H                    -1.7608    3.6026   -2.8933 
 H                    -0.834     2.17     -2.5593 
 H                    -3.4036    2.335    -3.7921 
 H                    -2.4409    0.901    -3.4704 
 H                    -4.347    -1.7466   -0.5958 
 H                    -5.6037   -1.2261    0.5361 
 H                    -6.3643   -1.1445   -1.8753 
 H                    -6.533     0.3728   -1.0042 
 H                    -4.4758   -0.3693   -3.1043 
 H                    -5.6454    0.941    -3.1679 
 H                    -3.3106    2.1902    1.6735 
 H                    -1.8105    1.3996    2.145 
 H                    -2.7024   -0.796     1.4395 
 H                    -4.0407    0.0117    2.3052 
 H                    -5.0896    3.1843   -2.0917 
 H                    -5.2337    2.4206   -0.526 
 H                    -3.3424    4.4797   -1.4914 
 H                    -6.6669    5.469     1.581 
 H                    -5.4035    4.7095    2.5689 
 H                    -5.1062    6.2944    1.7634 
 H                     0.1487    4.6321   -1.7503 
 H                     0.3853    5.2271   -0.0904 
 H                    -1.144     5.509    -0.9118 
 H                     1.636    -2.068     0.5354 
 H                     3.139    -1.1987    0.3958 
 H                     0.2214   -2.4217   -1.6732 
 H                     4.3917   -1.2849   -1.6679 
 H                     4.6162   -2.0341   -4.0011 
 H                    -0.6899   -4.5506   -2.9972 
 H                     2.2526   -5.9428   -5.491 
 H                     2.0276   -5.3394   -3.8693 
 H                     0.1969   -6.662    -3.7099 
 H                     0.2977   -7.0917   -5.4088 
 H                    -3.4914   -4.5038   -2.9122 
 H                    -4.1869   -3.3247   -4.0433 
 H                    -4.3898   -5.7343   -4.8013 
 H                    -3.5354   -4.7356   -5.9581 
 H                    -2.2877   -6.5846   -3.8509 
 H                    -2.3643   -6.9071   -5.5773 
 H                    -0.3413   -1.0995   -4.2147 
 H                    -0.114    -1.5133   -5.8783 
 H                    -2.2968   -2.6874   -5.8899 
 H                    -2.5924   -1.4053   -4.6918 
 H                    -1.6228   -4.3246   -6.8775 
 H                    -0.8393   -5.8359   -7.1537 
 H                     1.1857   -4.9824   -7.3598 
 H                     1.2741   -0.7811   -8.7196 
 H                     0.9482   -1.8905   -10.1017 
 H                     2.6157   -1.5141   -9.6213 
 H                     3.5122   -4.1816   -7.0086 
 H                     4.4188   -2.8795   -6.2492 
 H                     4.1874   -4.4222   -5.3906 
 
 Stoichiometry    C45H56N4O5
 Framework group  C1[X(C45H56N4O5)]
 Deg. of freedom   324
 Full point group                 C1      NOp   1
 Largest Abelian subgroup         C1      NOp   1
 Largest concise Abelian subgroup C1      NOp   1
                         Standard orientation:                         
 ---------------------------------------------------------------------
 Center     Atomic      Atomic             Coordinates (Angstroms)
 Number     Number       Type             X           Y           Z
 ---------------------------------------------------------------------
      1          6           0        1.761550    1.805464   -1.621633
      2          6           0        1.215793    3.094526   -1.685751
      3          6           0        1.801258    4.133172   -0.930944
      4          6           0        2.902209    3.896011   -0.094926
      5          6           0        3.397387    2.608512    0.007143
      6          6           0        2.832651    1.581095   -0.774841
      7          7           0        4.416475    2.118063    0.866813
      8          6           0        3.597019    0.308393   -0.509483
      9          6           0        4.086502    0.672478    0.937036
     10          6           0        2.888578   -1.046325   -0.470093
     11          6           0        2.875117    0.492500    1.964858
     12          6           0        2.320005   -0.931903    1.944794
     13          6           0        3.065412   -1.756521    0.889652
     14          7           0        3.618326   -1.859578   -1.451953
     15          6           0        2.909929   -3.082578   -1.758957
     16          6           0        2.936004   -3.940179   -0.481880
     17          6           0        2.469167   -3.180359    0.774301
     18          6           0        4.595969    0.158406   -1.685929
     19          6           0        3.990337   -0.968381   -2.526541
     20          6           0        4.580492   -1.761547    1.298488
     21          6           0        5.152017   -0.311359    1.463382
     22          6           0        6.569799   -0.161032    0.928165
     23          8           0        7.056497    0.842167    0.427574
     24          8           0        7.292751   -1.292895    1.193284
     25          6           0        8.648499   -1.235835    0.749039
     26          6           0        4.748169    2.884830    2.050674
     27          6           0       -0.032581    3.341423   -2.504893
     28          6           0       -1.303596    3.002199   -1.753926
     29          6           0       -1.647275    1.661446   -1.529093
     30          6           0       -2.116962    4.019586   -1.216809
     31          6           0       -3.264601    3.714247   -0.471941
     32          6           0       -3.594464    2.386355   -0.256972
     33          6           0       -2.766698    1.372990   -0.765850
     34          7           0       -4.710991    1.863309    0.446652
     35          6           0       -3.256981    0.037551   -0.263791
     36          6           0       -4.764394    0.461429   -0.031883
     37          6           0       -3.215824   -1.208027   -1.165127
     38          6           0       -5.526379    0.406175   -1.427605
     39          6           0       -5.528512   -1.017658   -2.003680
     40          6           0       -4.615589   -1.911232   -1.137216
     41          7           0       -2.048384   -2.039361   -0.656434
     42          6           0       -2.107414   -3.487852   -1.064746
     43          6           0       -3.470169   -4.145242   -0.966195
     44          6           0       -4.519125   -3.328015   -1.711421
     45          6           0       -2.369269   -0.327547    0.955978
     46          6           0       -2.035012   -1.807036    0.821150
     47          6           0       -5.304366   -1.946720    0.270436
     48          6           0       -5.528763   -0.530963    0.857376
     49          6           0       -5.242464   -0.480853    2.347742
     50          8           0       -4.586699   -1.316898    2.957954
     51          8           0       -5.870958    0.577794    2.927531
     52          6           0       -5.613827    0.719511    4.324577
     53          6           0       -5.902228    2.698000    0.489943
     54          8           0       -0.863403   -1.545133   -1.186761
     55          1           0        1.337311    0.987730   -2.196673
     56          1           0        1.383848    5.136451   -0.974933
     57          1           0        3.324593    4.709390    0.482634
     58          1           0        1.828702   -0.945677   -0.737376
     59          1           0        3.207856    0.732745    2.983560
     60          1           0        2.051690    1.190303    1.768333
     61          1           0        2.423275   -1.387569    2.937248
     62          1           0        1.244730   -0.900116    1.728919
     63          1           0        1.879738   -2.892945   -2.083131
     64          1           0        3.414427   -3.633084   -2.560976
     65          1           0        2.312166   -4.830234   -0.624001
     66          1           0        3.959282   -4.300845   -0.313792
     67          1           0        1.374338   -3.107086    0.728422
     68          1           0        2.703157   -3.769146    1.669067
     69          1           0        5.584760   -0.161361   -1.352719
     70          1           0        4.734986    1.063013   -2.288910
     71          1           0        3.128926   -0.627432   -3.111613
     72          1           0        4.734574   -1.406750   -3.197751
     73          1           0        4.697021   -2.291742    2.253276
     74          1           0        5.166664   -2.333276    0.570085
     75          1           0        5.280141   -0.131194    2.541598
     76          1           0        9.117428   -2.198736    0.969606
     77          1           0        8.693123   -1.069716   -0.332025
     78          1           0        9.193966   -0.453987    1.286357
     79          1           0        3.870274    3.073757    2.677987
     80          1           0        5.193856    3.846385    1.774412
     81          1           0        5.489896    2.353061    2.654905
     82          1           0        0.008619    2.751797   -3.430351
     83          1           0       -0.056151    4.387812   -2.835843
     84          1           0       -1.019418    0.855025   -1.897541
     85          1           0       -1.849439    5.063506   -1.365095
     86          1           0       -3.866225    4.518375   -0.064737
     87          1           0       -2.944775   -0.965923   -2.202185
     88          1           0       -6.564435    0.744465   -1.314378
     89          1           0       -5.078285    1.086905   -2.162152
     90          1           0       -5.189337   -0.994217   -3.046879
     91          1           0       -6.552848   -1.410992   -2.023062
     92          1           0       -1.769831   -3.509285   -2.109266
     93          1           0       -1.361173   -4.010058   -0.455298
     94          1           0       -3.416155   -5.147949   -1.406168
     95          1           0       -3.752158   -4.287431    0.081178
     96          1           0       -4.252912   -3.285193   -2.775501
     97          1           0       -5.489340   -3.836146   -1.653883
     98          1           0       -1.414083    0.216580    0.923929
     99          1           0       -2.794495   -0.070966    1.925049
    100          1           0       -2.768290   -2.464681    1.282630
    101          1           0       -1.038056   -2.057725    1.197297
    102          1           0       -4.765933   -2.593699    0.961964
    103          1           0       -6.289299   -2.426274    0.171071
    104          1           0       -6.608495   -0.329680    0.782603
    105          1           0       -4.540365    0.827402    4.509772
    106          1           0       -6.019428   -0.134896    4.875197
    107          1           0       -6.117049    1.626314    4.671170
    108          1           0       -6.745455    2.148191    0.919075
    109          1           0       -5.734273    3.572234    1.128090
    110          1           0       -6.199374    3.042442   -0.507045
 ---------------------------------------------------------------------
 Rotational constants (GHZ):           0.0954605           0.0341378           0.0304546
 Standard basis: STO-3G (5D, 7F)
 There are   326 symmetry adapted cartesian basis functions of A   symmetry.
 There are   326 symmetry adapted basis functions of A   symmetry.
   326 basis functions,   978 primitive gaussians,   326 cartesian basis functions
   197 alpha electrons      197 beta electrons
       nuclear repulsion energy      8189.4270701960 Hartrees.
 NAtoms=  110 NActive=  110 NUniq=  110 SFac= 1.00D+00 NAtFMM=   60 NAOKFM=T Big=T
 Integral buffers will be    131072 words long.
 Raffenetti 1 integral format.
 Two-electron integral symmetry is turned on.
 One-electron integrals computed using PRISM.
 NBasis=   326 RedAO= T EigKep=  1.72D-01  NBF=   326
 NBsUse=   326 1.00D-06 EigRej= -1.00D+00 NBFU=   326
 ExpMin= 1.69D-01 ExpMax= 1.31D+02 ExpMxC= 1.31D+02 IAcc=3 IRadAn=         5 AccDes= 0.00D+00
 Harris functional with IExCor=  205 and IRadAn=       5 diagonalized for initial guess.
 HarFok:  IExCor=  205 AccDes= 0.00D+00 IRadAn=         5 IDoV= 1 UseB2=F ITyADJ=14
 ICtDFT=  3500011 ScaDFX=  1.000000  1.000000  1.000000  1.000000
 FoFCou: FMM=F IPFlag=           0 FMFlag=      100000 FMFlg1=        2001
         NFxFlg=           0 DoJE=T BraDBF=F KetDBF=T FulRan=T
         wScrn=  0.000000 ICntrl=       500 IOpCl=  0 I1Cent=   200000004 NGrid=           0
         NMat0=    1 NMatS0=      1 NMatT0=    0 NMatD0=    1 NMtDS0=    0 NMtDT0=    0
 Petite list used in FoFCou.
 Requested convergence on RMS density matrix=1.00D-08 within 128 cycles.
 Requested convergence on MAX density matrix=1.00D-06.
 Requested convergence on             energy=1.00D-06.
 No special actions if energy rises.
 Integral accuracy reduced to 1.0D-05 until final iterations.
 Initial convergence to 1.0D-05 achieved.  Increase integral accuracy.
 SCF Done:  E(RHF) =  -2300.22045271     A.U. after   16 cycles
            NFock= 16  Conv=0.38D-08     -V/T= 2.0092
 Range of M.O.s used for correlation:     1   326
 NBasis=   326 NAE=   197 NBE=   197 NFC=     0 NFV=     0
 NROrb=    326 NOA=   197 NOB=   197 NVA=   129 NVB=   129
          Differentiating once with respect to magnetic field using GIAOs.
          Electric field/nuclear overlap derivatives assumed to be zero.
 FoFCou: FMM=F IPFlag=           0 FMFlag=      100000 FMFlg1=        2001
         NFxFlg=           0 DoJE=F BraDBF=F KetDBF=T FulRan=T
         wScrn=  0.000000 ICntrl=      6100 IOpCl=  0 I1Cent=           7 NGrid=         110
         NMat0=    1 NMatS0=      1 NMatT0=    0 NMatD0=    1 NMtDS0=    0 NMtDT0=    0
 Symmetry not used in FoFCou.
 FoFJK:  IHMeth= 1 ICntrl=    6127 DoSepK=F KAlg= 0 I1Cent=           0 FoldK=F
 IRaf=         1 NMat=       1 IRICut=       1 DoRegI=T DoRafI=F ISym2E= 0 IDoP0=0 IntGTp=1.
          There are     3 degrees of freedom in the 1st order CPHF.  IDoFFX=0 NUNeed=     3.
      3 vectors produced by pass  0 Test12= 8.47D-13 3.33D-08 XBig12= 1.79D+02 2.45D+00.
 AX will form     3 AO Fock derivatives at one time.
      3 vectors produced by pass  1 Test12= 8.47D-13 3.33D-08 XBig12= 6.86D-01 2.37D-01.
      3 vectors produced by pass  2 Test12= 8.47D-13 3.33D-08 XBig12= 1.83D-02 3.63D-02.
      3 vectors produced by pass  3 Test12= 8.47D-13 3.33D-08 XBig12= 4.34D-04 5.10D-03.
      3 vectors produced by pass  4 Test12= 8.47D-13 3.33D-08 XBig12= 1.51D-05 5.49D-04.
      3 vectors produced by pass  5 Test12= 8.47D-13 3.33D-08 XBig12= 2.94D-07 9.82D-05.
      3 vectors produced by pass  6 Test12= 8.47D-13 3.33D-08 XBig12= 9.88D-09 1.90D-05.
      3 vectors produced by pass  7 Test12= 8.47D-13 3.33D-08 XBig12= 3.45D-10 2.44D-06.
      3 vectors produced by pass  8 Test12= 8.47D-13 3.33D-08 XBig12= 6.50D-12 4.28D-07.
      2 vectors produced by pass  9 Test12= 8.47D-13 3.33D-08 XBig12= 1.23D-13 9.25D-08.
 InvSVY:  IOpt=1 It=  1 EMax= 3.55D-15
 Solved reduced A of dimension    29 with     3 vectors.
 Calculating GIAO nuclear magnetic shielding tensors.
 SCF GIAO Magnetic shielding tensor (ppm):
      1  C    Isotropic =   125.4957   Anisotropy =   148.7554
   XX=   143.5066   YX=    -5.0072   ZX=   -69.1537
   XY=   -12.6541   YY=    73.1542   ZY=   -53.9349
   XZ=   -58.2018   YZ=   -54.5774   ZZ=   159.8263
   Eigenvalues:    33.2279   118.5933   224.6660
      2  C    Isotropic =   121.4517   Anisotropy =   155.9614
   XX=   110.0226   YX=    29.8209   ZX=   -82.2223
   XY=    26.7115   YY=   102.3510   ZY=   -17.9164
   XZ=   -85.0958   YZ=   -18.2116   ZZ=   151.9815
   Eigenvalues:    42.4480    96.4812   225.4260
      3  C    Isotropic =   119.9382   Anisotropy =   151.5909
   XX=   135.0050   YX=    45.8739   ZX=   -56.8248
   XY=    45.6682   YY=    48.5383   ZY=   -14.1638
   XZ=   -48.1253   YZ=   -16.7339   ZZ=   176.2714
   Eigenvalues:    28.4622   110.3537   220.9988
      4  C    Isotropic =   134.3959   Anisotropy =   142.6966
   XX=   156.4173   YX=    -2.3988   ZX=   -63.2200
   XY=    -1.9602   YY=    88.4052   ZY=   -40.6258
   XZ=   -65.5064   YZ=   -53.6583   ZZ=   158.3650
   Eigenvalues:    52.6308   121.0298   229.5270
      5  C    Isotropic =   108.0426   Anisotropy =   130.1520
   XX=   111.7652   YX=    28.3384   ZX=   -71.2260
   XY=    15.1306   YY=    95.6685   ZY=   -14.5769
   XZ=   -77.0572   YZ=   -13.3786   ZZ=   116.6940
   Eigenvalues:    39.3773    89.9398   194.8106
      6  C    Isotropic =   117.8488   Anisotropy =   142.3445
   XX=   136.4363   YX=    17.3938   ZX=   -60.8769
   XY=    31.5402   YY=    56.2829   ZY=   -13.9922
   XZ=   -56.0307   YZ=   -13.6798   ZZ=   160.8271
   Eigenvalues:    49.3191    91.4821   212.7451
      7  N    Isotropic =   274.0447   Anisotropy =    84.8026
   XX=   269.4528   YX=   -12.0472   ZX=    33.6067
   XY=   -23.4962   YY=   274.3318   ZY=   -43.9714
   XZ=    19.8645   YZ=   -31.4917   ZZ=   278.3494
   Eigenvalues:   237.0030   254.5513   330.5797
      8  C    Isotropic =   198.5747   Anisotropy =    13.2234
   XX=   200.6542   YX=     1.8741   ZX=    -2.4498
   XY=     8.8939   YY=   198.2533   ZY=     4.6310
   XZ=     4.6469   YZ=     7.7895   ZZ=   196.8166
   Eigenvalues:   190.3940   197.9398   207.3903
      9  C    Isotropic =   179.9966   Anisotropy =    42.5219
   XX=   167.4035   YX=    16.9811   ZX=     9.3977
   XY=     3.1543   YY=   204.3726   ZY=     6.2336
   XZ=    22.3454   YZ=     0.2208   ZZ=   168.2137
   Eigenvalues:   151.4428   180.2025   208.3445
     10  C    Isotropic =   189.1713   Anisotropy =    32.2202
   XX=   182.1529   YX=     2.8277   ZX=   -12.5300
   XY=    -1.1697   YY=   189.7963   ZY=    16.2823
   XZ=    -6.5482   YZ=    15.7535   ZZ=   195.5646
   Eigenvalues:   171.5414   185.3210   210.6514
     11  C    Isotropic =   213.0931   Anisotropy =    20.5628
   XX=   217.4217   YX=    -0.7277   ZX=   -12.8072
   XY=     6.8419   YY=   209.0313   ZY=    -1.8561
   XZ=    -8.0641   YZ=    -3.9389   ZZ=   212.8264
   Eigenvalues:   204.4075   208.0703   226.8017
     12  C    Isotropic =   214.7521   Anisotropy =    17.2103
   XX=   213.9581   YX=    -0.1183   ZX=    -5.7640
   XY=    -2.4898   YY=   218.2071   ZY=     8.9529
   XZ=    -5.0472   YZ=     9.1446   ZZ=   212.0910
   Eigenvalues:   204.1272   213.9035   226.2256
     13  C    Isotropic =   210.8994   Anisotropy =     7.9155
   XX=   213.2720   YX=     2.3033   ZX=    -1.1589
   XY=     3.2922   YY=   213.2442   ZY=    -1.6517
   XZ=     2.5580   YZ=    -2.7493   ZZ=   206.1819
   Eigenvalues:   205.2668   211.2550   216.1764
     14  N    Isotropic =   298.8390   Anisotropy =    57.0121
   XX=   263.1760   YX=     7.9663   ZX=   -33.2173
   XY=    18.8704   YY=   316.4260   ZY=    17.5148
   XZ=   -29.6112   YZ=    15.6091   ZZ=   316.9149
   Eigenvalues:   243.6177   316.0523   336.8470
     15  C    Isotropic =   202.1829   Anisotropy =    38.8464
   XX=   194.9274   YX=    13.1660   ZX=     2.9960
   XY=    13.8220   YY=   221.9128   ZY=     4.3651
   XZ=     3.8950   YZ=     2.9645   ZZ=   189.7086
   Eigenvalues:   187.4638   191.0045   228.0805
     16  C    Isotropic =   219.1141   Anisotropy =     7.9902
   XX=   212.0583   YX=     1.3171   ZX=    -3.2593
   XY=    -3.0570   YY=   222.6585   ZY=    -0.7721
   XZ=    -2.9362   YZ=    -2.3395   ZZ=   222.6256
   Eigenvalues:   211.0812   221.8202   224.4409
     17  C    Isotropic =   213.9035   Anisotropy =    21.8083
   XX=   209.2376   YX=     5.1233   ZX=    -0.9544
   XY=     7.5559   YY=   225.5060   ZY=     6.2422
   XZ=    -1.5592   YZ=     3.0843   ZZ=   206.9670
   Eigenvalues:   203.9445   209.3237   228.4424
     18  C    Isotropic =   208.8299   Anisotropy =    28.8306
   XX=   201.4547   YX=     8.0803   ZX=   -18.7156
   XY=     4.0716   YY=   210.8052   ZY=     7.2058
   XZ=   -15.8719   YZ=    13.4767   ZZ=   214.2298
   Eigenvalues:   184.7424   213.6970   228.0503
     19  C    Isotropic =   199.8927   Anisotropy =    40.2819
   XX=   186.7572   YX=    13.5504   ZX=   -10.1312
   XY=    14.8799   YY=   206.8264   ZY=   -14.8549
   XZ=   -15.9434   YZ=    -7.1091   ZZ=   206.0945
   Eigenvalues:   177.4482   195.4826   226.7473
     20  C    Isotropic =   211.5587   Anisotropy =    25.1551
   XX=   225.4056   YX=     4.7103   ZX=     7.2629
   XY=     5.0361   YY=   212.2921   ZY=    -1.6424
   XZ=     7.6727   YZ=    -3.5491   ZZ=   196.9784
   Eigenvalues:   194.3556   211.9918   228.3287
     21  C    Isotropic =   207.6209   Anisotropy =    17.3508
   XX=   217.5978   YX=    -4.4636   ZX=     2.1428
   XY=    -5.4623   YY=   203.5740   ZY=     0.7914
   XZ=    -2.3339   YZ=     1.5846   ZZ=   201.6909
   Eigenvalues:   200.7233   202.9513   219.1881
     22  C    Isotropic =    98.7806   Anisotropy =    98.3291
   XX=    20.9897   YX=    67.5440   ZX=    15.0259
   XY=    92.9214   YY=   119.4193   ZY=    -9.3681
   XZ=     4.9256   YZ=    -2.2274   ZZ=   155.9329
   Eigenvalues:   -24.6568   156.6653   164.3333
     23  O    Isotropic =  -143.6905   Anisotropy =   893.7488
   XX=  -277.6965   YX=   -26.1605   ZX=   212.4785
   XY=   -19.0398   YY=  -414.4473   ZY=   339.7680
   XZ=   209.3791   YZ=   344.5945   ZZ=   261.0723
   Eigenvalues:  -594.5031  -288.7104   452.1421
     24  O    Isotropic =   285.3732   Anisotropy =   145.3627
   XX=   190.0058   YX=   -14.2213   ZX=    58.9948
   XY=  -145.1159   YY=   344.4138   ZY=    42.7643
   XZ=   102.2751   YZ=     1.2522   ZZ=   321.7002
   Eigenvalues:   121.8529   351.9851   382.2817
     25  C    Isotropic =   197.6153   Anisotropy =    57.3052
   XX=   232.0246   YX=    -1.5827   ZX=   -14.1447
   XY=    -1.7773   YY=   177.7027   ZY=     0.8540
   XZ=   -13.9181   YZ=     0.3568   ZZ=   183.1187
   Eigenvalues:   177.6350   179.3922   235.8188
     26  C    Isotropic =   210.9292   Anisotropy =    41.3503
   XX=   203.3950   YX=     6.6183   ZX=     9.2481
   XY=     8.0567   YY=   207.8835   ZY=    18.4900
   XZ=     8.5253   YZ=    19.1969   ZZ=   221.5090
   Eigenvalues:   194.5141   199.7774   238.4961
     27  C    Isotropic =   206.5393   Anisotropy =    14.8125
   XX=   216.3764   YX=     0.3167   ZX=     1.3426
   XY=     0.0997   YY=   201.0120   ZY=    -5.4875
   XZ=     0.1213   YZ=    -3.9158   ZZ=   202.2295
   Eigenvalues:   196.8589   206.3448   216.4143
     28  C    Isotropic =   119.2781   Anisotropy =   158.1662
   XX=    91.4475   YX=   -12.8855   ZX=    87.4267
   XY=   -10.2405   YY=    91.1378   ZY=     4.3068
   XZ=    74.8753   YZ=     4.1149   ZZ=   175.2490
   Eigenvalues:    39.2129    93.8992   224.7223
     29  C    Isotropic =   122.1351   Anisotropy =   157.0873
   XX=   118.2659   YX=    35.2531   ZX=    75.1886
   XY=    35.9913   YY=    64.4330   ZY=   -20.0627
   XZ=    61.2474   YZ=   -11.2535   ZZ=   183.7063
   Eigenvalues:    30.9126   108.6326   226.8599
     30  C    Isotropic =   119.1343   Anisotropy =   151.2629
   XX=   134.8966   YX=   -25.4365   ZX=    56.9430
   XY=   -22.1212   YY=    35.2584   ZY=    11.0830
   XZ=    48.1095   YZ=     3.6648   ZZ=   187.2479
   Eigenvalues:    27.3185   110.1082   219.9762
     31  C    Isotropic =   134.3598   Anisotropy =   141.2748
   XX=   136.2377   YX=    31.5962   ZX=    62.5077
   XY=    24.1264   YY=    82.0611   ZY=   -16.6274
   XZ=    64.5924   YZ=   -19.4199   ZZ=   184.7805
   Eigenvalues:    53.6926   120.8438   228.5430
     32  C    Isotropic =   109.8086   Anisotropy =   125.7068
   XX=    90.4578   YX=    -3.6800   ZX=    66.1106
   XY=    -1.7378   YY=    92.6977   ZY=     2.0728
   XZ=    72.5502   YZ=    18.9159   ZZ=   146.2703
   Eigenvalues:    42.3110    93.5017   193.6131
     33  C    Isotropic =   119.8290   Anisotropy =   135.7938
   XX=   141.3437   YX=    -5.0775   ZX=    52.6335
   XY=    -6.5156   YY=    52.8597   ZY=    12.4901
   XZ=    58.8449   YZ=     2.8608   ZZ=   165.2835
   Eigenvalues:    50.9071    98.2216   210.3581
     34  N    Isotropic =   275.6099   Anisotropy =    81.9141
   XX=   299.8099   YX=    28.2316   ZX=   -11.3445
   XY=    46.9990   YY=   274.0523   ZY=    -7.8993
   XZ=   -19.9825   YZ=    -4.9952   ZZ=   252.9674
   Eigenvalues:   244.3605   252.2499   330.2192
     35  C    Isotropic =   195.6763   Anisotropy =    13.5520
   XX=   195.4257   YX=    -7.9812   ZX=    -2.8064
   XY=    -6.2778   YY=   196.2972   ZY=     6.7651
   XZ=    -2.1066   YZ=    -0.3914   ZZ=   195.3059
   Eigenvalues:   188.6903   193.6275   204.7109
     36  C    Isotropic =   181.4014   Anisotropy =    44.4402
   XX=   177.1146   YX=    -0.9582   ZX=   -17.1996
   XY=    -3.5006   YY=   206.2928   ZY=     8.2569
   XZ=    -5.0471   YZ=    19.5219   ZZ=   160.7967
   Eigenvalues:   152.6395   180.5364   211.0282
     37  C    Isotropic =   180.1885   Anisotropy =    47.5403
   XX=   187.8712   YX=   -17.9569   ZX=    18.4202
   XY=   -24.1238   YY=   180.9694   ZY=    -6.6619
   XZ=    10.8014   YZ=    -7.2315   ZZ=   171.7249
   Eigenvalues:   160.2552   168.4282   211.8820
     38  C    Isotropic =   213.8123   Anisotropy =    19.4697
   XX=   210.6441   YX=     0.0104   ZX=     8.6348
   XY=    -1.8213   YY=   210.4253   ZY=     5.7085
   XZ=    11.3787   YZ=    -0.7664   ZZ=   220.3674
   Eigenvalues:   203.7246   210.9201   226.7920
     39  C    Isotropic =   212.5036   Anisotropy =    21.9823
   XX=   210.9371   YX=    -8.1099   ZX=     7.4152
   XY=    -9.8765   YY=   215.7223   ZY=    -6.3836
   XZ=     6.8306   YZ=    -4.1589   ZZ=   210.8515
   Eigenvalues:   202.7071   207.6452   227.1585
     40  C    Isotropic =   212.0014   Anisotropy =     9.5802
   XX=   211.0477   YX=     2.9459   ZX=     0.6598
   XY=     1.9898   YY=   213.7159   ZY=     4.0295
   XZ=     1.6165   YZ=     5.5566   ZZ=   211.2407
   Eigenvalues:   207.4012   210.2149   218.3882
     41  N    Isotropic =   235.0036   Anisotropy =    27.6730
   XX=   250.5998   YX=   -16.1193   ZX=   -10.2817
   XY=     5.3624   YY=   222.1862   ZY=   -12.9689
   XZ=    -4.3822   YZ=    -0.4961   ZZ=   232.2248
   Eigenvalues:   216.8142   234.7444   253.4523
     42  C    Isotropic =   194.9084   Anisotropy =    48.5611
   XX=   182.3623   YX=    -1.6078   ZX=    -6.1785
   XY=     7.1120   YY=   222.1231   ZY=    18.9124
   XZ=    -8.7152   YZ=    12.2404   ZZ=   180.2399
   Eigenvalues:   169.9922   187.4505   227.2825
     43  C    Isotropic =   222.9805   Anisotropy =    11.4853
   XX=   229.8005   YX=    -1.4675   ZX=     2.6546
   XY=    -2.0904   YY=   224.4727   ZY=    -0.8344
   XZ=     1.7465   YZ=     0.3364   ZZ=   214.6684
   Eigenvalues:   214.3549   223.9493   230.6374
     44  C    Isotropic =   215.7684   Anisotropy =    18.7223
   XX=   211.3309   YX=    -2.9559   ZX=     0.6902
   XY=    -7.3161   YY=   224.5815   ZY=     6.8068
   XZ=    -2.0247   YZ=     4.7048   ZZ=   211.3927
   Eigenvalues:   208.3592   210.6960   228.2499
     45  C    Isotropic =   211.0443   Anisotropy =    37.5261
   XX=   206.3643   YX=    -7.5274   ZX=    17.4197
   XY=    -8.7551   YY=   217.1151   ZY=    -7.0688
   XZ=    18.6495   YZ=   -15.1894   ZZ=   209.6536
   Eigenvalues:   189.7991   207.2722   236.0617
     46  C    Isotropic =   191.9107   Anisotropy =    49.9932
   XX=   172.2498   YX=   -10.3897   ZX=     3.5247
   XY=   -18.4441   YY=   181.0895   ZY=    13.6691
   XZ=     8.4941   YZ=     8.2665   ZZ=   222.3928
   Eigenvalues:   159.5126   190.9800   225.2395
     47  C    Isotropic =   212.5363   Anisotropy =    21.4971
   XX=   204.9744   YX=     3.5985   ZX=    -8.3212
   XY=     1.9061   YY=   212.0012   ZY=     7.5438
   XZ=    -9.0733   YZ=     7.3486   ZZ=   220.6333
   Eigenvalues:   198.5783   212.1629   226.8677
     48  C    Isotropic =   209.5258   Anisotropy =     9.2874
   XX=   205.7311   YX=     6.6803   ZX=     0.7570
   XY=     6.3716   YY=   207.3578   ZY=    -5.0284
   XZ=    -1.0277   YZ=     3.2771   ZZ=   215.4885
   Eigenvalues:   199.9532   212.9068   215.7174
     49  C    Isotropic =    96.0962   Anisotropy =    98.6593
   XX=   149.2685   YX=    20.8706   ZX=    33.7070
   XY=    15.0655   YY=   113.0680   ZY=   -89.9339
   XZ=    21.1810   YZ=   -72.3575   ZZ=    25.9520
   Eigenvalues:   -28.6264   155.0458   161.8690
     50  O    Isotropic =  -133.4708   Anisotropy =   887.6188
   XX=   137.5972   YX=   443.3040   ZX=  -140.4962
   XY=   452.1122   YY=  -216.2759   ZY=    17.9993
   XZ=  -163.4055   YZ=    31.9040   ZZ=  -321.7338
   Eigenvalues:  -568.7015  -289.9860   458.2750
     51  O    Isotropic =   283.2125   Anisotropy =   139.2071
   XX=   338.7645   YX=    -5.7467   ZX=  -107.4740
   XY=    22.8020   YY=   360.1045   ZY=   116.2233
   XZ=   -41.5529   YZ=   -16.8747   ZZ=   150.7684
   Eigenvalues:   114.7327   358.8875   376.0172
     52  C    Isotropic =   197.2154   Anisotropy =    57.4343
   XX=   179.6244   YX=     0.9052   ZX=     5.9031
   XY=     1.6185   YY=   178.4326   ZY=     8.6908
   XZ=     5.6190   YZ=     8.4154   ZZ=   233.5893
   Eigenvalues:   177.0614   179.0799   235.5050
     53  C    Isotropic =   209.9564   Anisotropy =    42.1817
   XX=   221.9149   YX=   -20.9489   ZX=    -3.4314
   XY=   -21.5919   YY=   209.0123   ZY=     2.4584
   XZ=    -4.4528   YZ=    -0.0352   ZZ=   198.9419
   Eigenvalues:   192.9046   198.8870   238.0775
     54  O    Isotropic =     2.8267   Anisotropy =   523.0972
   XX=   222.0512   YX=   141.4641   ZX=  -166.0187
   XY=   161.9377   YY=  -142.2866   ZY=   -75.5921
   XZ=  -161.3743   YZ=   -63.4633   ZZ=   -71.2844
   Eigenvalues:  -198.7129  -144.3651   351.5582
     55  H    Isotropic =    25.6278   Anisotropy =    12.0101
   XX=    29.5811   YX=    -4.2823   ZX=     2.4763
   XY=    -4.1417   YY=    26.3818   ZY=    -2.2989
   XZ=     3.6484   YZ=    -2.2753   ZZ=    20.9206
   Eigenvalues:    19.7681    23.4808    33.6346
     56  H    Isotropic =    25.9056   Anisotropy =     6.8793
   XX=    27.0957   YX=     1.7265   ZX=     3.4046
   XY=     0.8298   YY=    27.9354   ZY=     0.7788
   XZ=     4.4662   YZ=     1.4496   ZZ=    22.6857
   Eigenvalues:    20.3659    26.8590    30.4918
     57  H    Isotropic =    26.7343   Anisotropy =     7.4311
   XX=    26.1418   YX=    -1.2950   ZX=     4.1908
   XY=    -1.2923   YY=    31.0431   ZY=    -0.2300
   XZ=     4.1853   YZ=    -0.5676   ZZ=    23.0180
   Eigenvalues:    20.0944    28.4201    31.6884
     58  H    Isotropic =    31.4805   Anisotropy =    13.2812
   XX=    39.5222   YX=     0.4307   ZX=     3.5383
   XY=    -0.9062   YY=    29.6266   ZY=    -0.0121
   XZ=     3.3625   YZ=    -2.0374   ZZ=    25.2927
   Eigenvalues:    24.3310    29.7759    40.3347
     59  H    Isotropic =    32.4581   Anisotropy =    12.6912
   XX=    27.4755   YX=     3.3256   ZX=    -0.5024
   XY=     2.1805   YY=    30.2336   ZY=     3.6526
   XZ=     1.2719   YZ=     3.2829   ZZ=    39.6653
   Eigenvalues:    25.5967    30.8587    40.9189
     60  H    Isotropic =    33.4070   Anisotropy =     8.7213
   XX=    36.4399   YX=    -2.9564   ZX=    -3.5728
   XY=    -4.3541   YY=    34.4079   ZY=    -0.6386
   XZ=     0.4470   YZ=    -2.8799   ZZ=    29.3733
   Eigenvalues:    27.8961    33.1038    39.2212
     61  H    Isotropic =    32.4658   Anisotropy =    13.9248
   XX=    27.8809   YX=     1.5540   ZX=    -2.2468
   XY=     1.3376   YY=    29.7178   ZY=    -3.9360
   XZ=    -1.5564   YZ=    -4.6284   ZZ=    39.7986
   Eigenvalues:    27.0622    28.5861    41.7490
     62  H    Isotropic =    32.7019   Anisotropy =    17.3759
   XX=    44.2374   YX=     1.2421   ZX=    -0.8408
   XY=     0.5204   YY=    27.8559   ZY=     1.0841
   XZ=     0.5335   YZ=    -0.6943   ZZ=    26.0123
   Eigenvalues:    25.9886    27.8312    44.2858
     63  H    Isotropic =    31.9098   Anisotropy =    12.3251
   XX=    37.5397   YX=     1.0046   ZX=     4.6805
   XY=     1.8791   YY=    28.5796   ZY=     1.5369
   XZ=     4.9083   YZ=     1.4895   ZZ=    29.6102
   Eigenvalues:    26.9320    28.6710    40.1265
     64  H    Isotropic =    31.8054   Anisotropy =    14.9201
   XX=    27.0162   YX=    -1.1914   ZX=    -3.9176
   XY=    -1.9800   YY=    33.6342   ZY=     6.4845
   XZ=    -3.7321   YZ=     6.4956   ZZ=    34.7657
   Eigenvalues:    25.2246    28.4395    41.7521
     65  H    Isotropic =    32.3800   Anisotropy =    15.9026
   XX=    29.7665   YX=     5.8342   ZX=     0.3309
   XY=     5.1275   YY=    40.4269   ZY=     1.9487
   XZ=     0.5319   YZ=     1.9427   ZZ=    26.9467
   Eigenvalues:    26.5635    27.5949    42.9818
     66  H    Isotropic =    31.9311   Anisotropy =    13.8286
   XX=    34.8453   YX=    -6.2730   ZX=     1.2485
   XY=    -6.7587   YY=    34.2518   ZY=    -0.1203
   XZ=     1.6782   YZ=     0.0986   ZZ=    26.6961
   Eigenvalues:    26.0983    28.5448    41.1501
     67  H    Isotropic =    32.2494   Anisotropy =    15.5524
   XX=    42.2155   YX=     2.3086   ZX=    -1.4254
   XY=     2.0209   YY=    29.2827   ZY=     1.0814
   XZ=    -0.6864   YZ=     0.3799   ZZ=    25.2499
   Eigenvalues:    24.9993    29.1312    42.6177
     68  H    Isotropic =    32.3217   Anisotropy =    13.9658
   XX=    26.8943   YX=     0.6867   ZX=     0.7059
   XY=     0.5488   YY=    35.1821   ZY=    -6.5003
   XZ=     1.0804   YZ=    -6.6856   ZZ=    34.8888
   Eigenvalues:    26.3453    28.9876    41.6323
     69  H    Isotropic =    32.4167   Anisotropy =    12.7433
   XX=    40.6096   YX=    -1.2181   ZX=     1.1402
   XY=    -0.2725   YY=    25.6035   ZY=     0.7232
   XZ=     2.2010   YZ=     1.5698   ZZ=    31.0370
   Eigenvalues:    25.2961    31.0418    40.9123
     70  H    Isotropic =    32.7316   Anisotropy =    12.0073
   XX=    30.3962   YX=     1.2580   ZX=    -4.6146
   XY=     3.8098   YY=    34.8304   ZY=    -5.0938
   XZ=    -5.1150   YZ=    -3.2849   ZZ=    32.9682
   Eigenvalues:    26.5993    30.8590    40.7365
     71  H    Isotropic =    32.0753   Anisotropy =    10.6500
   XX=    30.8586   YX=    -2.2780   ZX=     3.9281
   XY=    -1.8598   YY=    28.9503   ZY=    -2.1481
   XZ=     4.5189   YZ=    -0.6320   ZZ=    36.4169
   Eigenvalues:    27.3890    29.6616    39.1753
     72  H    Isotropic =    31.9990   Anisotropy =    16.0736
   XX=    31.7187   YX=    -2.3977   ZX=    -7.0230
   XY=    -0.8725   YY=    28.2513   ZY=     3.3036
   XZ=    -7.6613   YZ=     4.5903   ZZ=    36.0270
   Eigenvalues:    25.5399    27.7423    42.7147
     73  H    Isotropic =    31.6383   Anisotropy =    14.4375
   XX=    29.7965   YX=    -0.8065   ZX=     4.6405
   XY=    -1.2064   YY=    31.7761   ZY=    -6.7460
   XZ=     5.2447   YZ=    -7.1410   ZZ=    33.3423
   Eigenvalues:    24.1182    29.5335    41.2633
     74  H    Isotropic =    30.8170   Anisotropy =     9.8334
   XX=    35.5727   YX=    -3.1863   ZX=    -0.2295
   XY=    -3.3935   YY=    30.8449   ZY=     3.0245
   XZ=     1.6238   YZ=     4.2959   ZZ=    26.0334
   Eigenvalues:    23.6373    31.4411    37.3726
     75  H    Isotropic =    31.5424   Anisotropy =    12.2680
   XX=    29.8789   YX=     0.0615   ZX=     5.3279
   XY=    -1.0835   YY=    27.6652   ZY=     2.1014
   XZ=     4.5820   YZ=     1.0393   ZZ=    37.0832
   Eigenvalues:    26.2863    28.6199    39.7211
     76  H    Isotropic =    30.5693   Anisotropy =    12.5122
   XX=    33.4581   YX=    -6.1157   ZX=     1.1715
   XY=    -5.2515   YY=    32.5815   ZY=    -1.3624
   XZ=     0.8808   YZ=    -1.0958   ZZ=    25.6684
   Eigenvalues:    25.4557    27.3414    38.9108
     77  H    Isotropic =    30.5626   Anisotropy =     8.1659
   XX=    32.1233   YX=    -1.1671   ZX=    -2.5635
   XY=    -0.8039   YY=    25.7039   ZY=    -0.8050
   XZ=    -3.1893   YZ=     0.1306   ZZ=    33.8606
   Eigenvalues:    25.4761    30.2052    36.0066
     78  H    Isotropic =    30.5594   Anisotropy =    11.4104
   XX=    35.4364   YX=     2.7159   ZX=     3.3265
   XY=     3.5506   YY=    29.1483   ZY=     2.6318
   XZ=     3.3164   YZ=     2.0928   ZZ=    27.0935
   Eigenvalues:    25.3684    28.1435    38.1663
     79  H    Isotropic =    32.1004   Anisotropy =    10.7871
   XX=    30.3897   YX=    -0.5643   ZX=    -3.7130
   XY=    -1.0303   YY=    31.3307   ZY=     4.9727
   XZ=    -1.9630   YZ=     5.4790   ZZ=    34.5809
   Eigenvalues:    27.0739    29.9356    39.2919
     80  H    Isotropic =    30.9154   Anisotropy =    15.2849
   XX=    29.0220   YX=     6.1075   ZX=     2.3085
   XY=     5.7468   YY=    37.7760   ZY=     0.9638
   XZ=     2.6704   YZ=     1.5659   ZZ=    25.9483
   Eigenvalues:    24.1730    27.4680    41.1054
     81  H    Isotropic =    31.7224   Anisotropy =    11.8903
   XX=    31.9342   YX=    -0.3099   ZX=     7.4039
   XY=    -0.8702   YY=    31.1354   ZY=     1.5243
   XZ=     7.7319   YZ=     1.7172   ZZ=    32.0975
   Eigenvalues:    24.1001    31.4177    39.6492
     82  H    Isotropic =    29.9859   Anisotropy =     7.9186
   XX=    26.2947   YX=    -0.3662   ZX=    -0.0407
   XY=    -0.7085   YY=    29.3363   ZY=     1.8268
   XZ=    -0.8131   YZ=     2.7751   ZZ=    34.3268
   Eigenvalues:    26.2024    28.4903    35.2650
     83  H    Isotropic =    29.9471   Anisotropy =    12.5282
   XX=    27.3199   YX=    -0.2608   ZX=     0.0233
   XY=    -0.6113   YY=    36.3062   ZY=    -4.3624
   XZ=     0.4121   YZ=    -5.3909   ZZ=    26.2153
   Eigenvalues:    24.2432    27.2989    38.2992
     84  H    Isotropic =    24.7581   Anisotropy =    14.1610
   XX=    28.9613   YX=     5.1438   ZX=    -2.7225
   XY=     4.2253   YY=    26.7456   ZY=    -2.9974
   XZ=    -4.4609   YZ=    -3.6875   ZZ=    18.5673
   Eigenvalues:    17.0137    23.0618    34.1987
     85  H    Isotropic =    25.6968   Anisotropy =     6.5672
   XX=    27.9850   YX=    -1.9719   ZX=    -2.8066
   XY=    -1.0038   YY=    27.4632   ZY=    -0.0297
   XZ=    -3.5691   YZ=     0.1993   ZZ=    21.6421
   Eigenvalues:    20.2819    26.7334    30.0749
     86  H    Isotropic =    26.6749   Anisotropy =     7.9850
   XX=    27.1533   YX=     1.6046   ZX=    -3.3410
   XY=     1.5003   YY=    31.1465   ZY=    -0.3840
   XZ=    -4.0278   YZ=    -0.5084   ZZ=    21.7247
   Eigenvalues:    19.8545    28.1719    31.9982
     87  H    Isotropic =    30.6793   Anisotropy =     6.4375
   XX=    30.3863   YX=     0.7865   ZX=    -1.0237
   XY=     0.9936   YY=    28.4804   ZY=    -2.5262
   XZ=    -3.5470   YZ=    -0.6721   ZZ=    33.1712
   Eigenvalues:    27.9643    29.1026    34.9709
     88  H    Isotropic =    32.1343   Anisotropy =    14.1769
   XX=    38.5583   YX=    -5.2441   ZX=     2.7039
   XY=    -5.2566   YY=    30.9612   ZY=     1.5364
   XZ=     4.1597   YZ=     2.2646   ZZ=    26.8833
   Eigenvalues:    24.0816    30.7356    41.5855
     89  H    Isotropic =    32.7790   Anisotropy =     8.8472
   XX=    29.4550   YX=     3.0519   ZX=     0.4436
   XY=     1.3990   YY=    34.1275   ZY=    -5.1226
   XZ=     2.9375   YZ=    -3.3082   ZZ=    34.7545
   Eigenvalues:    27.0239    32.6360    38.6771
     90  H    Isotropic =    32.4269   Anisotropy =    13.3496
   XX=    27.4034   YX=    -0.3394   ZX=     1.2032
   XY=    -0.9674   YY=    28.6813   ZY=    -0.2065
   XZ=     1.4174   YZ=     0.9352   ZZ=    41.1960
   Eigenvalues:    27.0001    28.9540    41.3266
     91  H    Isotropic =    32.2505   Anisotropy =    15.6388
   XX=    39.7705   YX=     3.0679   ZX=     5.4840
   XY=     2.7025   YY=    29.4312   ZY=     1.8348
   XZ=     5.3376   YZ=     1.9028   ZZ=    27.5498
   Eigenvalues:    25.3441    28.7310    42.6763
     92  H    Isotropic =    30.7109   Anisotropy =    11.7171
   XX=    31.5085   YX=     0.1986   ZX=    -4.5950
   XY=    -1.6697   YY=    28.3206   ZY=     5.4092
   XZ=    -5.3172   YZ=     4.0402   ZZ=    32.3036
   Eigenvalues:    24.3340    29.2764    38.5223
     93  H    Isotropic =    30.8473   Anisotropy =    13.0606
   XX=    35.4995   YX=    -3.4788   ZX=     3.4483
   XY=    -5.2502   YY=    33.0290   ZY=    -0.4333
   XZ=     3.9529   YZ=    -1.0304   ZZ=    24.0133
   Eigenvalues:    22.8921    30.0953    39.5544
     94  H    Isotropic =    32.2814   Anisotropy =    17.8602
   XX=    28.0747   YX=    -0.3233   ZX=     0.6878
   XY=    -0.2094   YY=    42.8860   ZY=     4.8142
   XZ=     0.6887   YZ=     4.9489   ZZ=    25.8834
   Eigenvalues:    24.4337    28.2222    44.1882
     95  H    Isotropic =    32.5344   Anisotropy =     9.6862
   XX=    28.9020   YX=     0.9711   ZX=    -2.4732
   XY=     0.5450   YY=    33.4795   ZY=    -3.6949
   XZ=    -2.4941   YZ=    -4.2344   ZZ=    35.2216
   Eigenvalues:    27.9485    30.6627    38.9918
     96  H    Isotropic =    32.4620   Anisotropy =    13.0098
   XX=    27.6570   YX=    -0.6906   ZX=     0.5753
   XY=    -0.9973   YY=    29.9369   ZY=     3.8703
   XZ=     0.4555   YZ=     3.8754   ZZ=    39.7920
   Eigenvalues:    27.0504    29.2004    41.1352
     97  H    Isotropic =    32.3979   Anisotropy =    15.2615
   XX=    37.0822   YX=     6.2155   ZX=     2.5779
   XY=     5.8542   YY=    34.2623   ZY=     2.8977
   XZ=     1.8678   YZ=     2.5152   ZZ=    25.8492
   Eigenvalues:    25.0304    29.5911    42.5722
     98  H    Isotropic =    32.1466   Anisotropy =    14.7761
   XX=    39.9992   YX=     3.0464   ZX=     3.3523
   XY=     5.3664   YY=    30.9631   ZY=    -0.0543
   XZ=     2.9272   YZ=    -3.1151   ZZ=    25.4775
   Eigenvalues:    23.8963    30.5461    41.9973
     99  H    Isotropic =    33.0421   Anisotropy =    10.3983
   XX=    33.4350   YX=    -2.3632   ZX=    -2.2935
   XY=    -0.6875   YY=    27.1764   ZY=     2.4223
   XZ=    -2.4723   YZ=     1.8902   ZZ=    38.5148
   Eigenvalues:    26.5980    32.5539    39.9743
    100  H    Isotropic =    31.5023   Anisotropy =     7.4561
   XX=    31.0913   YX=     1.2103   ZX=    -1.6220
   XY=     1.7597   YY=    30.4282   ZY=    -3.0371
   XZ=    -1.5523   YZ=    -4.3343   ZZ=    32.9873
   Eigenvalues:    27.7754    30.2584    36.4730
    101  H    Isotropic =    31.1126   Anisotropy =    16.0600
   XX=    38.3543   YX=    -3.2251   ZX=     4.3772
   XY=    -3.1355   YY=    26.8967   ZY=    -1.4432
   XZ=     7.1123   YZ=    -2.2258   ZZ=    28.0869
   Eigenvalues:    25.3208    26.1979    41.8193
    102  H    Isotropic =    31.6305   Anisotropy =     8.8502
   XX=    28.8671   YX=    -2.3204   ZX=     0.2032
   XY=    -3.0078   YY=    33.0134   ZY=    -3.3645
   XZ=    -0.2805   YZ=    -4.8356   ZZ=    33.0111
   Eigenvalues:    26.8022    30.5587    37.5307
    103  H    Isotropic =    32.1808   Anisotropy =    15.0917
   XX=    37.7341   YX=     6.7798   ZX=    -2.1575
   XY=     6.3251   YY=    32.2892   ZY=     1.4355
   XZ=    -2.8347   YZ=     0.8651   ZZ=    26.5189
   Eigenvalues:    24.6962    29.6042    42.2419
    104  H    Isotropic =    31.1619   Anisotropy =    13.1058
   XX=    38.8891   YX=    -2.6176   ZX=    -2.5770
   XY=    -1.1422   YY=    27.4857   ZY=     2.1348
   XZ=    -2.9279   YZ=     1.3485   ZZ=    27.1109
   Eigenvalues:    25.4867    28.1000    39.8991
    105  H    Isotropic =    30.7013   Anisotropy =     7.3760
   XX=    33.4176   YX=     1.5121   ZX=     2.6262
   XY=     0.8579   YY=    26.0945   ZY=     1.9234
   XZ=     1.5894   YZ=     1.7938   ZZ=    32.5917
   Eigenvalues:    25.5494    30.9358    35.6186
    106  H    Isotropic =    30.5918   Anisotropy =    11.6484
   XX=    27.5280   YX=     1.4713   ZX=    -3.8397
   XY=     2.2037   YY=    29.6134   ZY=    -3.8260
   XZ=    -4.2665   YZ=    -3.4254   ZZ=    34.6339
   Eigenvalues:    25.6781    27.7399    38.3574
    107  H    Isotropic =    30.5347   Anisotropy =    12.2241
   XX=    27.5724   YX=    -3.5955   ZX=    -2.8384
   XY=    -3.7463   YY=    31.9897   ZY=     4.2048
   XZ=    -3.6801   YZ=     4.8076   ZZ=    32.0420
   Eigenvalues:    25.3752    27.5448    38.6841
    108  H    Isotropic =    30.9693   Anisotropy =    10.9950
   XX=    35.7449   YX=    -1.0193   ZX=    -5.8220
   XY=    -1.5864   YY=    30.3877   ZY=    -0.7393
   XZ=    -4.8121   YZ=    -1.0466   ZZ=    26.7754
   Eigenvalues:    24.0125    30.5962    38.2993
    109  H    Isotropic =    30.7199   Anisotropy =    14.4388
   XX=    27.5189   YX=    -2.2142   ZX=    -3.0505
   XY=    -2.2288   YY=    36.7131   ZY=     5.7597
   XZ=    -2.4271   YZ=     5.6907   ZZ=    27.9277
   Eigenvalues:    24.2635    27.5504    40.3458
    110  H    Isotropic =    31.9113   Anisotropy =    12.1893
   XX=    32.1128   YX=    -5.1290   ZX=     2.5315
   XY=    -5.0676   YY=    32.6855   ZY=    -3.2801
   XZ=     4.4120   YZ=    -3.3649   ZZ=    30.9356
   Eigenvalues:    27.2526    28.4438    40.0375
 End of Minotr F.D. properties file   721 does not exist.
 End of Minotr F.D. properties file   722 does not exist.
 End of Minotr F.D. properties file   788 does not exist.
 Hyperfine terms turned off by default for NAtoms > 100.

 **********************************************************************

            Population analysis using the SCF Density.

 **********************************************************************

 Orbital symmetries:
       Occupied  (A) (A) (A) (A) (A) (A) (A) (A) (A) (A) (A) (A)
                 (A) (A) (A) (A) (A) (A) (A) (A) (A) (A) (A) (A)
                 (A) (A) (A) (A) (A) (A) (A) (A) (A) (A) (A) (A)
                 (A) (A) (A) (A) (A) (A) (A) (A) (A) (A) (A) (A)
                 (A) (A) (A) (A) (A) (A) (A) (A) (A) (A) (A) (A)
                 (A) (A) (A) (A) (A) (A) (A) (A) (A) (A) (A) (A)
                 (A) (A) (A) (A) (A) (A) (A) (A) (A) (A) (A) (A)
                 (A) (A) (A) (A) (A) (A) (A) (A) (A) (A) (A) (A)
                 (A) (A) (A) (A) (A) (A) (A) (A) (A) (A) (A) (A)
                 (A) (A) (A) (A) (A) (A) (A) (A) (A) (A) (A) (A)
                 (A) (A) (A) (A) (A) (A) (A) (A) (A) (A) (A) (A)
                 (A) (A) (A) (A) (A) (A) (A) (A) (A) (A) (A) (A)
                 (A) (A) (A) (A) (A) (A) (A) (A) (A) (A) (A) (A)
                 (A) (A) (A) (A) (A) (A) (A) (A) (A) (A) (A) (A)
                 (A) (A) (A) (A) (A) (A) (A) (A) (A) (A) (A) (A)
                 (A) (A) (A) (A) (A) (A) (A) (A) (A) (A) (A) (A)
                 (A) (A) (A) (A) (A)
       Virtual   (A) (A) (A) (A) (A) (A) (A) (A) (A) (A) (A) (A)
                 (A) (A) (A) (A) (A) (A) (A) (A) (A) (A) (A) (A)
                 (A) (A) (A) (A) (A) (A) (A) (A) (A) (A) (A) (A)
                 (A) (A) (A) (A) (A) (A) (A) (A) (A) (A) (A) (A)
                 (A) (A) (A) (A) (A) (A) (A) (A) (A) (A) (A) (A)
                 (A) (A) (A) (A) (A) (A) (A) (A) (A) (A) (A) (A)
                 (A) (A) (A) (A) (A) (A) (A) (A) (A) (A) (A) (A)
                 (A) (A) (A) (A) (A) (A) (A) (A) (A) (A) (A) (A)
                 (A) (A) (A) (A) (A) (A) (A) (A) (A) (A) (A) (A)
                 (A) (A) (A) (A) (A) (A) (A) (A) (A) (A) (A) (A)
                 (A) (A) (A) (A) (A) (A) (A) (A) (A)
 The electronic state is 1-A.
 Alpha  occ. eigenvalues --  -20.31429 -20.28989 -20.25314 -20.23421 -19.92292
 Alpha  occ. eigenvalues --  -15.48223 -15.33889 -15.32176 -15.28691 -11.17356
 Alpha  occ. eigenvalues --  -11.14949 -11.11108 -11.10320 -11.09705 -11.09506
 Alpha  occ. eigenvalues --  -11.09438 -11.09115 -11.08284 -11.07885 -11.07537
 Alpha  occ. eigenvalues --  -11.07341 -11.07123 -11.07095 -11.06475 -11.06045
 Alpha  occ. eigenvalues --  -11.05811 -11.05458 -11.05268 -11.05258 -11.05250
 Alpha  occ. eigenvalues --  -11.05195 -11.05135 -11.04779 -11.04738 -11.04394
 Alpha  occ. eigenvalues --  -11.03985 -11.03809 -11.03501 -11.02814 -11.02605
 Alpha  occ. eigenvalues --  -11.02573 -11.02398 -11.02364 -11.02357 -11.01475
 Alpha  occ. eigenvalues --  -11.01415 -11.01291 -11.01020 -11.01008 -11.00798
 Alpha  occ. eigenvalues --  -11.00548 -11.00481 -11.00150 -11.00055  -1.38607
 Alpha  occ. eigenvalues --   -1.36428  -1.28640  -1.28430  -1.26097  -1.21392
 Alpha  occ. eigenvalues --   -1.20159  -1.17855  -1.12181  -1.08404  -1.07822
 Alpha  occ. eigenvalues --   -1.06869  -1.06225  -1.03722  -1.03271  -1.00871
 Alpha  occ. eigenvalues --   -0.99559  -0.98752  -0.97776  -0.97005  -0.96541
 Alpha  occ. eigenvalues --   -0.95214  -0.95015  -0.93241  -0.92771  -0.92407
 Alpha  occ. eigenvalues --   -0.91981  -0.90767  -0.89653  -0.89206  -0.87724
 Alpha  occ. eigenvalues --   -0.85995  -0.84136  -0.83171  -0.82167  -0.80894
 Alpha  occ. eigenvalues --   -0.80306  -0.79147  -0.78448  -0.77921  -0.75704
 Alpha  occ. eigenvalues --   -0.75551  -0.74644  -0.72745  -0.72580  -0.71846
 Alpha  occ. eigenvalues --   -0.71114  -0.70576  -0.69129  -0.68232  -0.67153
 Alpha  occ. eigenvalues --   -0.66048  -0.64245  -0.63540  -0.63322  -0.63034
 Alpha  occ. eigenvalues --   -0.62196  -0.62133  -0.61875  -0.61387  -0.61100
 Alpha  occ. eigenvalues --   -0.59993  -0.59776  -0.59243  -0.58736  -0.58627
 Alpha  occ. eigenvalues --   -0.58405  -0.57855  -0.57586  -0.56987  -0.56648
 Alpha  occ. eigenvalues --   -0.56371  -0.56001  -0.55942  -0.55482  -0.55432
 Alpha  occ. eigenvalues --   -0.55364  -0.54693  -0.54551  -0.54009  -0.53612
 Alpha  occ. eigenvalues --   -0.53433  -0.52842  -0.52537  -0.52230  -0.52189
 Alpha  occ. eigenvalues --   -0.52057  -0.51119  -0.50795  -0.50190  -0.50086
 Alpha  occ. eigenvalues --   -0.49798  -0.49461  -0.49085  -0.48800  -0.48569
 Alpha  occ. eigenvalues --   -0.48294  -0.48036  -0.47579  -0.47192  -0.46863
 Alpha  occ. eigenvalues --   -0.46364  -0.46118  -0.45718  -0.45514  -0.45267
 Alpha  occ. eigenvalues --   -0.44902  -0.44658  -0.44413  -0.43820  -0.43585
 Alpha  occ. eigenvalues --   -0.43331  -0.42877  -0.42640  -0.42476  -0.41790
 Alpha  occ. eigenvalues --   -0.41632  -0.41258  -0.41044  -0.40564  -0.40158
 Alpha  occ. eigenvalues --   -0.39817  -0.39649  -0.39026  -0.38705  -0.37812
 Alpha  occ. eigenvalues --   -0.36555  -0.35926  -0.35841  -0.34796  -0.34474
 Alpha  occ. eigenvalues --   -0.33980  -0.32630  -0.32380  -0.31837  -0.30246
 Alpha  occ. eigenvalues --   -0.26514  -0.26150  -0.25593  -0.21010  -0.19156
 Alpha  occ. eigenvalues --   -0.16217  -0.16036
 Alpha virt. eigenvalues --    0.27239   0.27802   0.28689   0.29632   0.30319
 Alpha virt. eigenvalues --    0.32347   0.46415   0.47057   0.48857   0.49922
 Alpha virt. eigenvalues --    0.50087   0.50438   0.50892   0.51241   0.52551
 Alpha virt. eigenvalues --    0.53834   0.54099   0.55468   0.55976   0.56479
 Alpha virt. eigenvalues --    0.57130   0.57853   0.58274   0.58392   0.58936
 Alpha virt. eigenvalues --    0.59234   0.59760   0.60299   0.61024   0.61432
 Alpha virt. eigenvalues --    0.61749   0.61896   0.62357   0.63295   0.63451
 Alpha virt. eigenvalues --    0.63651   0.63833   0.64123   0.64340   0.64403
 Alpha virt. eigenvalues --    0.64710   0.65063   0.65423   0.65558   0.65940
 Alpha virt. eigenvalues --    0.66490   0.66715   0.67147   0.67292   0.67506
 Alpha virt. eigenvalues --    0.67968   0.68460   0.68860   0.68921   0.69022
 Alpha virt. eigenvalues --    0.69358   0.69473   0.69577   0.69814   0.70053
 Alpha virt. eigenvalues --    0.70602   0.70708   0.70904   0.71450   0.71493
 Alpha virt. eigenvalues --    0.71703   0.72087   0.72440   0.72605   0.72906
 Alpha virt. eigenvalues --    0.73121   0.73517   0.73808   0.73915   0.74155
 Alpha virt. eigenvalues --    0.74373   0.74934   0.75010   0.75250   0.75567
 Alpha virt. eigenvalues --    0.75594   0.75954   0.76310   0.76393   0.76940
 Alpha virt. eigenvalues --    0.77010   0.77430   0.77486   0.77599   0.77666
 Alpha virt. eigenvalues --    0.77928   0.78379   0.78542   0.79012   0.79297
 Alpha virt. eigenvalues --    0.79799   0.79899   0.80351   0.80781   0.80929
 Alpha virt. eigenvalues --    0.81283   0.81695   0.81796   0.82104   0.82593
 Alpha virt. eigenvalues --    0.83097   0.83458   0.83919   0.84528   0.84669
 Alpha virt. eigenvalues --    0.86513   0.86555   0.87127   0.87600   0.88682
 Alpha virt. eigenvalues --    0.88835   0.90684   0.91506   0.92582   0.94707
 Alpha virt. eigenvalues --    0.95719   0.96615   0.99158   1.00629   1.03285
 Alpha virt. eigenvalues --    1.11516   1.12549   1.16461   1.17571
          Condensed to atoms (all electrons):
 Mulliken charges:
               1
     1  C   -0.074497
     2  C   -0.000771
     3  C   -0.062880
     4  C   -0.092071
     5  C    0.094146
     6  C   -0.012636
     7  N   -0.282487
     8  C    0.016154
     9  C    0.131486
    10  C    0.033791
    11  C   -0.114863
    12  C   -0.107775
    13  C    0.041962
    14  N   -0.294139
    15  C   -0.015322
    16  C   -0.093774
    17  C   -0.099913
    18  C   -0.094939
    19  C   -0.016228
    20  C   -0.099671
    21  C   -0.062767
    22  C    0.313866
    23  O   -0.266314
    24  O   -0.261494
    25  C   -0.056872
    26  C   -0.076463
    27  C   -0.108929
    28  C    0.000498
    29  C   -0.073137
    30  C   -0.060844
    31  C   -0.091559
    32  C    0.087726
    33  C   -0.015678
    34  N   -0.287870
    35  C    0.020784
    36  C    0.128853
    37  C    0.040637
    38  C   -0.115650
    39  C   -0.104802
    40  C    0.028220
    41  N   -0.085903
    42  C   -0.007737
    43  C   -0.110733
    44  C   -0.102241
    45  C   -0.106533
    46  C   -0.012617
    47  C   -0.111630
    48  C   -0.067118
    49  C    0.320536
    50  O   -0.279068
    51  O   -0.253915
    52  C   -0.055664
    53  C   -0.078725
    54  O   -0.456594
    55  H    0.064643
    56  H    0.053207
    57  H    0.056371
    58  H    0.065404
    59  H    0.045624
    60  H    0.054487
    61  H    0.044826
    62  H    0.051572
    63  H    0.053051
    64  H    0.054948
    65  H    0.046146
    66  H    0.051361
    67  H    0.050900
    68  H    0.046876
    69  H    0.059769
    70  H    0.059041
    71  H    0.043013
    72  H    0.056625
    73  H    0.050012
    74  H    0.072675
    75  H    0.061011
    76  H    0.074639
    77  H    0.072817
    78  H    0.071227
    79  H    0.054007
    80  H    0.073717
    81  H    0.068695
    82  H    0.058416
    83  H    0.055407
    84  H    0.088466
    85  H    0.056138
    86  H    0.056847
    87  H    0.086143
    88  H    0.053057
    89  H    0.058594
    90  H    0.054175
    91  H    0.051767
    92  H    0.088609
    93  H    0.080125
    94  H    0.066157
    95  H    0.057639
    96  H    0.056885
    97  H    0.057737
    98  H    0.082272
    99  H    0.071872
   100  H    0.068841
   101  H    0.087327
   102  H    0.065864
   103  H    0.055223
   104  H    0.067259
   105  H    0.075747
   106  H    0.073073
   107  H    0.079099
   108  H    0.075002
   109  H    0.073580
   110  H    0.056180
 Sum of Mulliken charges =  -0.00000
 Mulliken charges with hydrogens summed into heavy atoms:
               1
     1  C   -0.009855
     2  C   -0.000771
     3  C   -0.009674
     4  C   -0.035700
     5  C    0.094146
     6  C   -0.012636
     7  N   -0.282487
     8  C    0.016154
     9  C    0.131486
    10  C    0.099195
    11  C   -0.014752
    12  C   -0.011377
    13  C    0.041962
    14  N   -0.294139
    15  C    0.092677
    16  C    0.003733
    17  C   -0.002136
    18  C    0.023870
    19  C    0.083410
    20  C    0.023016
    21  C   -0.001757
    22  C    0.313866
    23  O   -0.266314
    24  O   -0.261494
    25  C    0.161812
    26  C    0.119955
    27  C    0.004895
    28  C    0.000498
    29  C    0.015328
    30  C   -0.004706
    31  C   -0.034712
    32  C    0.087726
    33  C   -0.015678
    34  N   -0.287870
    35  C    0.020784
    36  C    0.128853
    37  C    0.126780
    38  C   -0.003999
    39  C    0.001140
    40  C    0.028220
    41  N   -0.085903
    42  C    0.160997
    43  C    0.013063
    44  C    0.012380
    45  C    0.047611
    46  C    0.143551
    47  C    0.009457
    48  C    0.000141
    49  C    0.320536
    50  O   -0.279068
    51  O   -0.253915
    52  C    0.172255
    53  C    0.126036
    54  O   -0.456594
 Electronic spatial extent (au):  <R**2>=          36622.4027
 Charge=             -0.0000 electrons
 Dipole moment (field-independent basis, Debye):
    X=             -6.3545    Y=             -2.2892    Z=              1.5599  Tot=              6.9321
 Quadrupole moment (field-independent basis, Debye-Ang):
   XX=           -278.3553   YY=           -294.4970   ZZ=           -293.1859
   XY=             -1.5809   XZ=              6.8614   YZ=              7.4627
 Traceless Quadrupole moment (field-independent basis, Debye-Ang):
   XX=             10.3241   YY=             -5.8176   ZZ=             -4.5065
   XY=             -1.5809   XZ=              6.8614   YZ=              7.4627
 Octapole moment (field-independent basis, Debye-Ang**2):
  XXX=           -139.8823  YYY=            -26.9668  ZZZ=             57.6344  XYY=            -44.4949
  XXY=            -83.8815  XXZ=             48.9405  XZZ=              1.7804  YZZ=              8.7235
  YYZ=              6.0648  XYZ=             -4.3222
 Hexadecapole moment (field-independent basis, Debye-Ang**3):
 XXXX=         -30303.8243 YYYY=          -9135.9725 ZZZZ=          -4519.5023 XXXY=           -525.2274
 XXXZ=              9.7880 YYYX=             53.4903 YYYZ=             92.2420 ZZZX=           -247.5926
 ZZZY=            126.2602 XXYY=          -6860.5281 XXZZ=          -5815.2692 YYZZ=          -2357.4459
 XXYZ=            203.4431 YYXZ=             28.3790 ZZXY=            -39.8013
 N-N= 8.189427070196D+03 E-N=-2.175658124019D+04  KE= 2.279156411361D+03
 ******************************Gaussian NBO Version 3.1******************************
             N A T U R A L   A T O M I C   O R B I T A L   A N D
          N A T U R A L   B O N D   O R B I T A L   A N A L Y S I S
 ******************************Gaussian NBO Version 3.1******************************
       /RESON  / : Allow strongly delocalized NBO set
       /NLMO   / : Form Natural Localized Molecular Orbitals
       /NMR /    : Analyze NMR Sheilding Tensor 

 Analyzing the SCF density

 Job title: pleiokomenine_C_1a                                              

 Storage needed:    355564 in NPA,    438187 in NBO,   2133784 in NLMO ( 104796000 available)
 GSVD:  LWork=     -108884 too small for GESVD, short by      536270 words or      536270 for optimal perf.


 NATURAL POPULATIONS:  Natural atomic orbital occupancies 
                                                          
   NAO  Atom  No  lang   Type(AO)    Occupancy      Energy
 ----------------------------------------------------------
     1    C    1  S      Cor( 1S)     1.99992     -10.92946
     2    C    1  S      Val( 2S)     1.07886      -0.16037
     3    C    1  px     Val( 2p)     0.99673       0.11294
     4    C    1  py     Val( 2p)     0.98168       0.16608
     5    C    1  pz     Val( 2p)     0.99958       0.08846
 
     6    C    2  S      Cor( 1S)     1.99990     -10.94079
     7    C    2  S      Val( 2S)     1.07688      -0.16794
     8    C    2  px     Val( 2p)     0.95628       0.13557
     9    C    2  py     Val( 2p)     0.96334       0.18387
    10    C    2  pz     Val( 2p)     0.99156       0.09126
 
    11    C    3  S      Cor( 1S)     1.99994     -10.93366
    12    C    3  S      Val( 2S)     1.08308      -0.16806
    13    C    3  px     Val( 2p)     0.98453       0.11941
    14    C    3  py     Val( 2p)     0.97653       0.16551
    15    C    3  pz     Val( 2p)     0.98994       0.08995
 
    16    C    4  S      Cor( 1S)     1.99993     -10.92608
    17    C    4  S      Val( 2S)     1.07107      -0.15847
    18    C    4  px     Val( 2p)     1.01208       0.10703
    19    C    4  py     Val( 2p)     0.97742       0.17008
    20    C    4  pz     Val( 2p)     1.02993       0.07837
 
    21    C    5  S      Cor( 1S)     1.99985     -10.97447
    22    C    5  S      Val( 2S)     1.05960      -0.16989
    23    C    5  px     Val( 2p)     0.90078       0.12620
    24    C    5  py     Val( 2p)     0.97740       0.16823
    25    C    5  pz     Val( 2p)     0.94335       0.09527
 
    26    C    6  S      Cor( 1S)     1.99990     -10.93119
    27    C    6  S      Val( 2S)     1.08375      -0.17277
    28    C    6  px     Val( 2p)     0.98560       0.13171
    29    C    6  py     Val( 2p)     0.95640       0.15729
    30    C    6  pz     Val( 2p)     0.99699       0.10080
 
    31    N    7  S      Cor( 1S)     1.99998     -15.25397
    32    N    7  S      Val( 2S)     1.39484      -0.57421
    33    N    7  px     Val( 2p)     1.54555      -0.15278
    34    N    7  py     Val( 2p)     1.06694       0.03034
    35    N    7  pz     Val( 2p)     1.26454      -0.04173
 
    36    C    8  S      Cor( 1S)     1.99996     -10.98808
    37    C    8  S      Val( 2S)     1.10588      -0.21209
    38    C    8  px     Val( 2p)     0.98125       0.08981
    39    C    8  py     Val( 2p)     0.95613       0.13481
    40    C    8  pz     Val( 2p)     0.94105       0.12261
 
    41    C    9  S      Cor( 1S)     1.99996     -11.03445
    42    C    9  S      Val( 2S)     1.11148      -0.23951
    43    C    9  px     Val( 2p)     0.93236       0.09755
    44    C    9  py     Val( 2p)     0.82911       0.14857
    45    C    9  pz     Val( 2p)     0.95282       0.09866
 
    46    C   10  S      Cor( 1S)     1.99993     -10.99204
    47    C   10  S      Val( 2S)     1.09574      -0.19586
    48    C   10  px     Val( 2p)     0.97554       0.12357
    49    C   10  py     Val( 2p)     0.92790       0.11597
    50    C   10  pz     Val( 2p)     0.93572       0.10771
 
    51    C   11  S      Cor( 1S)     1.99994     -10.96487
    52    C   11  S      Val( 2S)     1.10440      -0.20003
    53    C   11  px     Val( 2p)     0.99331       0.09852
    54    C   11  py     Val( 2p)     0.98745       0.10254
    55    C   11  pz     Val( 2p)     0.99920       0.09667
 
    56    C   12  S      Cor( 1S)     1.99996     -10.96188
    57    C   12  S      Val( 2S)     1.08815      -0.18139
    58    C   12  px     Val( 2p)     1.00644       0.10327
    59    C   12  py     Val( 2p)     0.97921       0.10472
    60    C   12  pz     Val( 2p)     1.00417       0.10282
 
    61    C   13  S      Cor( 1S)     1.99998     -10.98835
    62    C   13  S      Val( 2S)     1.09975      -0.20491
    63    C   13  px     Val( 2p)     0.94000       0.12796
    64    C   13  py     Val( 2p)     0.94839       0.12548
    65    C   13  pz     Val( 2p)     0.94862       0.12527
 
    66    N   14  S      Cor( 1S)     1.99999     -15.21780
    67    N   14  S      Val( 2S)     1.42710      -0.56707
    68    N   14  px     Val( 2p)     1.56767      -0.14338
    69    N   14  py     Val( 2p)     1.09893       0.04547
    70    N   14  pz     Val( 2p)     1.18929       0.00128
 
    71    C   15  S      Cor( 1S)     1.99994     -10.99194
    72    C   15  S      Val( 2S)     1.07104      -0.17419
    73    C   15  px     Val( 2p)     0.98588       0.11190
    74    C   15  py     Val( 2p)     0.91568       0.11748
    75    C   15  pz     Val( 2p)     0.98870       0.09850
 
    76    C   16  S      Cor( 1S)     1.99996     -10.96518
    77    C   16  S      Val( 2S)     1.08405      -0.17813
    78    C   16  px     Val( 2p)     1.01521       0.10551
    79    C   16  py     Val( 2p)     0.98861       0.10804
    80    C   16  pz     Val( 2p)     0.96843       0.11300
 
    81    C   17  S      Cor( 1S)     1.99995     -10.96561
    82    C   17  S      Val( 2S)     1.09033      -0.18336
    83    C   17  px     Val( 2p)     1.00844       0.10287
    84    C   17  py     Val( 2p)     0.97721       0.10912
    85    C   17  pz     Val( 2p)     0.98788       0.10860
 
    86    C   18  S      Cor( 1S)     1.99994     -10.96205
    87    C   18  S      Val( 2S)     1.09317      -0.18202
    88    C   18  px     Val( 2p)     0.99751       0.11079
    89    C   18  py     Val( 2p)     0.99592       0.10768
    90    C   18  pz     Val( 2p)     0.97516       0.10482
 
    91    C   19  S      Cor( 1S)     1.99995     -10.99036
    92    C   19  S      Val( 2S)     1.07218      -0.17583
    93    C   19  px     Val( 2p)     1.00267       0.09786
    94    C   19  py     Val( 2p)     0.95004       0.09603
    95    C   19  pz     Val( 2p)     0.93787       0.12661
 
    96    C   20  S      Cor( 1S)     1.99992     -10.97021
    97    C   20  S      Val( 2S)     1.10231      -0.19791
    98    C   20  px     Val( 2p)     0.98069       0.10047
    99    C   20  py     Val( 2p)     0.95493       0.11041
   100    C   20  pz     Val( 2p)     1.02343       0.09861
 
   101    C   21  S      Cor( 1S)     1.99994     -10.99715
   102    C   21  S      Val( 2S)     1.11442      -0.22937
   103    C   21  px     Val( 2p)     0.96167       0.09736
   104    C   21  py     Val( 2p)     0.99204       0.08175
   105    C   21  pz     Val( 2p)     1.01000       0.07819
 
   106    C   22  S      Cor( 1S)     1.99990     -11.09684
   107    C   22  S      Val( 2S)     1.05833      -0.24909
   108    C   22  px     Val( 2p)     0.89762       0.10398
   109    C   22  py     Val( 2p)     0.78159       0.18483
   110    C   22  pz     Val( 2p)     0.86699       0.02714
 
   111    O   23  S      Cor( 1S)     1.99999     -20.08485
   112    O   23  S      Val( 2S)     1.80763      -1.04241
   113    O   23  px     Val( 2p)     1.76195      -0.27050
   114    O   23  py     Val( 2p)     1.44585      -0.14285
   115    O   23  pz     Val( 2p)     1.28435      -0.11671
 
   116    O   24  S      Cor( 1S)     1.99999     -20.20050
   117    O   24  S      Val( 2S)     1.73257      -1.01667
   118    O   24  px     Val( 2p)     1.22559      -0.08846
   119    O   24  py     Val( 2p)     1.53038      -0.22469
   120    O   24  pz     Val( 2p)     1.78512      -0.33434
 
   121    C   25  S      Cor( 1S)     1.99984     -11.03539
   122    C   25  S      Val( 2S)     1.07683      -0.21740
   123    C   25  px     Val( 2p)     0.82889       0.09149
   124    C   25  py     Val( 2p)     1.04318       0.04552
   125    C   25  pz     Val( 2p)     1.01767       0.05516
 
   126    C   26  S      Cor( 1S)     1.99993     -11.00639
   127    C   26  S      Val( 2S)     1.06300      -0.18412
   128    C   26  px     Val( 2p)     1.02543       0.07082
   129    C   26  py     Val( 2p)     1.00201       0.07237
   130    C   26  pz     Val( 2p)     0.92402       0.10071
 
   131    C   27  S      Cor( 1S)     1.99996     -10.97173
   132    C   27  S      Val( 2S)     1.08218      -0.17622
   133    C   27  px     Val( 2p)     0.98089       0.10713
   134    C   27  py     Val( 2p)     1.02553       0.09675
   135    C   27  pz     Val( 2p)     0.99672       0.10324
 
   136    C   28  S      Cor( 1S)     1.99990     -10.94744
   137    C   28  S      Val( 2S)     1.07874      -0.17478
   138    C   28  px     Val( 2p)     0.95281       0.13861
   139    C   28  py     Val( 2p)     0.95954       0.18568
   140    C   28  pz     Val( 2p)     0.99466       0.06879
 
   141    C   29  S      Cor( 1S)     1.99993     -10.93498
   142    C   29  S      Val( 2S)     1.08476      -0.16818
   143    C   29  px     Val( 2p)     0.98218       0.12543
   144    C   29  py     Val( 2p)     0.98959       0.16602
   145    C   29  pz     Val( 2p)     0.99603       0.06401
 
   146    C   30  S      Cor( 1S)     1.99994     -10.94195
   147    C   30  S      Val( 2S)     1.08392      -0.17602
   148    C   30  px     Val( 2p)     0.97920       0.12532
   149    C   30  py     Val( 2p)     0.97630       0.16370
   150    C   30  pz     Val( 2p)     0.99227       0.06252
 
   151    C   31  S      Cor( 1S)     1.99993     -10.93575
   152    C   31  S      Val( 2S)     1.07119      -0.16833
   153    C   31  px     Val( 2p)     1.00953       0.11043
   154    C   31  py     Val( 2p)     0.97080       0.16818
   155    C   31  pz     Val( 2p)     1.03798       0.04858
 
   156    C   32  S      Cor( 1S)     1.99986     -10.98457
   157    C   32  S      Val( 2S)     1.05904      -0.18133
   158    C   32  px     Val( 2p)     0.91368       0.12481
   159    C   32  py     Val( 2p)     0.97738       0.16146
   160    C   32  pz     Val( 2p)     0.93896       0.06369
 
   161    C   33  S      Cor( 1S)     1.99990     -10.94246
   162    C   33  S      Val( 2S)     1.08081      -0.18276
   163    C   33  px     Val( 2p)     0.99680       0.12552
   164    C   33  py     Val( 2p)     0.93963       0.15718
   165    C   33  pz     Val( 2p)     1.01340       0.06857
 
   166    N   34  S      Cor( 1S)     1.99998     -15.27094
   167    N   34  S      Val( 2S)     1.40313      -0.59624
   168    N   34  px     Val( 2p)     1.12249      -0.00246
   169    N   34  py     Val( 2p)     1.06369       0.01410
   170    N   34  pz     Val( 2p)     1.68711      -0.23082
 
   171    C   35  S      Cor( 1S)     1.99996     -11.02076
   172    C   35  S      Val( 2S)     1.11039      -0.24570
   173    C   35  px     Val( 2p)     0.94519       0.08703
   174    C   35  py     Val( 2p)     0.95779       0.10261
   175    C   35  pz     Val( 2p)     0.96470       0.07165
 
   176    C   36  S      Cor( 1S)     1.99996     -11.05854
   177    C   36  S      Val( 2S)     1.11125      -0.26383
   178    C   36  px     Val( 2p)     0.94868       0.07438
   179    C   36  py     Val( 2p)     0.84212       0.11630
   180    C   36  pz     Val( 2p)     0.92637       0.07746
 
   181    C   37  S      Cor( 1S)     1.99991     -11.04350
   182    C   37  S      Val( 2S)     1.12065      -0.26491
   183    C   37  px     Val( 2p)     0.87883       0.09319
   184    C   37  py     Val( 2p)     0.92849       0.05898
   185    C   37  pz     Val( 2p)     0.99878       0.05666
 
   186    C   38  S      Cor( 1S)     1.99994     -10.98913
   187    C   38  S      Val( 2S)     1.10449      -0.22408
   188    C   38  px     Val( 2p)     1.01325       0.07208
   189    C   38  py     Val( 2p)     0.98415       0.07951
   190    C   38  pz     Val( 2p)     0.98438       0.07407
 
   191    C   39  S      Cor( 1S)     1.99995     -10.99160
   192    C   39  S      Val( 2S)     1.09247      -0.21441
   193    C   39  px     Val( 2p)     1.00590       0.07384
   194    C   39  py     Val( 2p)     0.97621       0.07562
   195    C   39  pz     Val( 2p)     0.99804       0.07744
 
   196    C   40  S      Cor( 1S)     1.99998     -11.02646
   197    C   40  S      Val( 2S)     1.10510      -0.24941
   198    C   40  px     Val( 2p)     0.94043       0.08570
   199    C   40  py     Val( 2p)     0.94990       0.08936
   200    C   40  pz     Val( 2p)     0.95450       0.07987
 
   201    N   41  S      Cor( 1S)     1.99999     -15.42091
   202    N   41  S      Val( 2S)     1.40216      -0.66464
   203    N   41  px     Val( 2p)     1.25211      -0.13168
   204    N   41  py     Val( 2p)     1.15758      -0.10375
   205    N   41  pz     Val( 2p)     1.16204      -0.10508
 
   206    C   42  S      Cor( 1S)     1.99991     -11.03842
   207    C   42  S      Val( 2S)     1.08955      -0.23556
   208    C   42  px     Val( 2p)     0.99672       0.05813
   209    C   42  py     Val( 2p)     0.83565       0.09211
   210    C   42  pz     Val( 2p)     1.03457       0.03987
 
   211    C   43  S      Cor( 1S)     1.99997     -11.00157
   212    C   43  S      Val( 2S)     1.07904      -0.21245
   213    C   43  px     Val( 2p)     0.97485       0.06973
   214    C   43  py     Val( 2p)     1.00822       0.06092
   215    C   43  pz     Val( 2p)     1.01903       0.06425
 
   216    C   44  S      Cor( 1S)     1.99996     -10.99823
   217    C   44  S      Val( 2S)     1.08477      -0.21293
   218    C   44  px     Val( 2p)     1.00377       0.06861
   219    C   44  py     Val( 2p)     0.97766       0.07324
   220    C   44  pz     Val( 2p)     1.00376       0.07023
 
   221    C   45  S      Cor( 1S)     1.99994     -10.99117
   222    C   45  S      Val( 2S)     1.09392      -0.21185
   223    C   45  px     Val( 2p)     1.02123       0.06757
   224    C   45  py     Val( 2p)     0.96639       0.07980
   225    C   45  pz     Val( 2p)     0.99917       0.08330
 
   226    C   46  S      Cor( 1S)     1.99992     -11.03101
   227    C   46  S      Val( 2S)     1.09067      -0.22926
   228    C   46  px     Val( 2p)     1.04057       0.05051
   229    C   46  py     Val( 2p)     1.00134       0.05525
   230    C   46  pz     Val( 2p)     0.82960       0.09243
 
   231    C   47  S      Cor( 1S)     1.99992     -10.99856
   232    C   47  S      Val( 2S)     1.09917      -0.22640
   233    C   47  px     Val( 2p)     1.02037       0.05983
   234    C   47  py     Val( 2p)     0.97064       0.07672
   235    C   47  pz     Val( 2p)     0.98529       0.06902
 
   236    C   48  S      Cor( 1S)     1.99995     -11.01751
[...]
 Sum       29.7717       -0.8282      30.5999        -2.1944      31.9661

 Contributions to Isotropic shielding for atom   94 (    32.2814 ppm):
                         Standard Origin              Atomic Origin
 NLMO      Total    Paramagnetic  Diamagnetic   Paramagnetic  Diamagnetic
  102       1.6500       -0.0209       1.6709         0.7488       0.9012
  103       0.1282        1.4861      -1.3579        -0.9208       1.0490
  104       0.2989        1.2352      -0.9363        -0.6215       0.9204
  105       0.5573        3.2441      -2.6868        -0.4792       1.0365
  106      26.1038       -0.3287      26.4326         0.4774      25.6265
  107       1.9871        2.6483      -0.6612         0.1778       1.8093
 Sum       30.7253        8.2640      22.4613        -0.6176      31.3430

 Contributions to Isotropic shielding for atom   95 (    32.5344 ppm):
                         Standard Origin              Atomic Origin
 NLMO      Total    Paramagnetic  Diamagnetic   Paramagnetic  Diamagnetic
   89      -0.3665        0.5359      -0.9024        -1.0165       0.6500
   97       0.1048       -0.9516       1.0564        -0.6183       0.7232
   98      -0.0822       -0.1082       0.0260        -1.1547       1.0725
  100      -0.3282        0.6201      -0.9483        -1.1271       0.7990
  102       1.9615       -1.8346       3.7961         1.1598       0.8017
  105       1.0827        1.4785      -0.3958         0.1894       0.8933
  106       1.8353        3.3961      -1.5608         0.0043       1.8309
  107      26.2743        0.1205      26.1538         0.4354      25.8389
 Sum       30.4816        3.2566      27.2250        -2.1277      32.6094

 Contributions to Isotropic shielding for atom   96 (    32.4620 ppm):
                         Standard Origin              Atomic Origin
 NLMO      Total    Paramagnetic  Diamagnetic   Paramagnetic  Diamagnetic
   89      -0.3386        0.4501      -0.7887        -1.0937       0.7550
   90      -0.0404        0.9700      -1.0103        -0.7886       0.7482
   94      -0.1785        0.8673      -1.0459        -1.0458       0.8673
   97       1.8073       -1.2070       3.0142         0.9941       0.8132
  105       1.5078       -0.2907       1.7984         0.6274       0.8804
  108      26.2832        0.2121      26.0710         0.4883      25.7948
  109       1.4947        4.0720      -2.5773        -0.2965       1.7912
 Sum       30.5354        5.0740      25.4615        -1.1147      31.6502

 Contributions to Isotropic shielding for atom   97 (    32.3979 ppm):
                         Standard Origin              Atomic Origin
 NLMO      Total    Paramagnetic  Diamagnetic   Paramagnetic  Diamagnetic
   94      -0.2417        1.6197      -1.8614        -0.9323       0.6906
   97       1.0881        0.9518       0.1363         0.3159       0.7722
   98      -0.3353        1.5960      -1.9312        -1.3859       1.0506
  105       0.7365        2.3062      -1.5696        -0.2137       0.9502
  106       0.2519        1.1174      -0.8654        -0.7168       0.9687
  108       1.9170        3.1989      -1.2819         0.1413       1.7757
  109      26.4645       -0.4264      26.8909         0.6867      25.7778
 Sum       29.8810       10.3635      19.5175        -2.1048      31.9858

 Contributions to Isotropic shielding for atom   98 (    32.1466 ppm):
                         Standard Origin              Atomic Origin
 NLMO      Total    Paramagnetic  Diamagnetic   Paramagnetic  Diamagnetic
   71      -0.0936       -1.1780       1.0844        -1.2168       1.1232
   80       0.1785       -1.2133       1.3918        -0.9118       1.0902
   85       1.3824        0.0568       1.3256         0.5430       0.8395
  110       1.1982       -0.9686       2.1668         0.3014       0.8967
  111      25.4742        0.6042      24.8700         0.3299      25.1443
  112       1.9083        0.1341       1.7743        -0.1014       2.0097
  114      -0.0975       -1.1684       1.0709        -1.1875       1.0900
  121       0.0439       -1.1060       1.1498        -0.7495       0.7933
 Sum       29.9943       -4.8393      34.8336        -2.9926      32.9869

 Contributions to Isotropic shielding for atom   99 (    33.0421 ppm):
                         Standard Origin              Atomic Origin
 NLMO      Total    Paramagnetic  Diamagnetic   Paramagnetic  Diamagnetic
   79       0.4050       -0.7074       1.1124        -0.2303       0.6353
   81       0.2324       -0.8787       1.1111        -0.6073       0.8397
   85       0.5454        1.7087      -1.1633        -0.1935       0.7389
   87       0.0227       -1.1966       1.2193        -0.8132       0.8358
  110       0.9221        1.1841      -0.2620         0.2665       0.6556
  111       2.2551       -0.0907       2.3457         0.3228       1.9322
  112      25.9286        0.1217      25.8070         0.4670      25.4616
  115       0.0964       -1.0378       1.1342        -0.4834       0.5798
  118       0.7942       -1.3938       2.1881        -0.0302       0.8244
  120       1.5138       -0.7323       2.2461         0.5999       0.9139
  121      -0.2832       -3.5288       3.2455        -1.2577       0.9745
  123       0.3109       -1.2497       1.5605        -0.4515       0.7624
  124      -0.0639       -1.0060       0.9421        -0.5559       0.4920
  191      -0.6823        1.5256      -2.2079         0.1841      -0.8664
 Sum       31.9971       -7.2818      39.2789        -2.7827      34.7798

 Contributions to Isotropic shielding for atom  100 (    31.5023 ppm):
                         Standard Origin              Atomic Origin
 NLMO      Total    Paramagnetic  Diamagnetic   Paramagnetic  Diamagnetic
   98       0.1153       -1.3233       1.4387        -0.7568       0.8722
   99      -0.1207        0.2581      -0.3788        -1.0250       0.9043
  100      -0.0325        1.5379      -1.5704        -0.6122       0.5797
  107      -0.2744       -2.2808       2.0064        -0.8036       0.5292
  113      26.5031        0.2478      26.2553         0.9693      25.5338
  114       1.7896        0.6610       1.1286        -0.1114       1.9009
  115       0.1146       -1.0153       1.1299        -0.4903       0.6048
  116      -0.5550       -2.5957       2.0407        -0.5811       0.0261
  121       0.1831       -1.5521       1.7352        -0.7931       0.9761
  191      -0.5278        0.9369      -1.4647         0.3649      -0.8927
 Sum       27.1952       -5.1256      32.3208        -3.8392      31.0344

 Contributions to Isotropic shielding for atom  101 (    31.1126 ppm):
                         Standard Origin              Atomic Origin
 NLMO      Total    Paramagnetic  Diamagnetic   Paramagnetic  Diamagnetic
  100       1.3460       -0.2312       1.5772         0.4834       0.8625
  101       0.1643       -0.6548       0.8191        -0.8682       1.0325
  104      -0.1416       -1.4238       1.2822        -0.9037       0.7620
  110       1.1640       -1.1364       2.3004         0.1931       0.9709
  111      -0.0122       -0.4138       0.4016        -1.1890       1.1768
  113       1.3570        1.2430       0.1140        -0.4001       1.7571
  114      25.6376        0.7329      24.9047         0.6928      24.9449
 Sum       29.5151       -1.8840      31.3991        -1.9917      31.5068

 Contributions to Isotropic shielding for atom  102 (    31.6305 ppm):
                         Standard Origin              Atomic Origin
 NLMO      Total    Paramagnetic  Diamagnetic   Paramagnetic  Diamagnetic
   83      -0.1808        0.2559      -0.4367        -1.0029       0.8221
   87       0.3358       -0.8233       1.1591         0.0522       0.2837
   98       1.8674       -1.5905       3.4579         0.9354       0.9320
  107      -0.4498       -1.2380       0.7882        -0.8114       0.3616
  115       1.3214       -0.3214       1.6429         0.4693       0.8522
  116      26.1171        0.3139      25.8032         0.4695      25.6477
  117       1.2977        3.1017      -1.8040        -0.6132       1.9109
  118       0.2036       -0.3454       0.5490        -0.8906       1.0942
  119       0.3045        1.0351      -0.7307        -0.1226       0.4270
  120      -0.1942       -0.7447       0.5505        -1.0736       0.8794
  121       0.4021       -0.8876       1.2897        -1.3023       1.7044
 Sum       31.0247       -1.2443      32.2690        -3.8903      34.9151

 Contributions to Isotropic shielding for atom  103 (    32.1808 ppm):
                         Standard Origin              Atomic Origin
 NLMO      Total    Paramagnetic  Diamagnetic   Paramagnetic  Diamagnetic
   94      -0.2722        1.2842      -1.5564        -1.1337       0.8615
   96      -0.0336       -1.4431       1.4096        -0.8054       0.7719
   97      -0.2111        1.3106      -1.5217        -1.0283       0.8173
   98       0.9895        1.7741      -0.7845         0.0022       0.9873
  109      -0.0496       -1.3856       1.3360        -0.8323       0.7827
  115       0.4218        3.3406      -2.9188        -0.6470       1.0689
  116       1.9454        2.3986      -0.4533         0.0456       1.8998
  117      26.6032       -0.8314      27.4346         0.7749      25.8283
  119      -0.1488        0.0665      -0.2153        -1.3002       1.1514
  121       0.1110       -0.0273       0.1383        -0.9159       1.0269
 Sum       29.3556        6.4872      22.8685        -5.8403      35.1959

 Contributions to Isotropic shielding for atom  104 (    31.1619 ppm):
                         Standard Origin              Atomic Origin
 NLMO      Total    Paramagnetic  Diamagnetic   Paramagnetic  Diamagnetic
   81      -0.5837        1.2493      -1.8330        -1.2902       0.7065
   82      -0.1439        0.3691      -0.5130        -1.0890       0.9452
   86      -0.4466        1.6325      -2.0791        -1.5532       1.1067
   87       1.4401        1.3280       0.1121         0.5021       0.9380
   92      -0.0292       -1.0198       0.9906        -0.8264       0.7972
  115       0.8499        3.6387      -2.7888        -0.2718       1.1217
  117      -0.1402       -0.1168      -0.0234        -1.3093       1.1690
  118       0.3450        4.4145      -4.0695        -0.5438       0.8888
  119      26.0993       -1.2010      27.3003         0.5934      25.5059
  122      -0.1877       -0.4776       0.2900        -1.8651       1.6774
  127      -0.2062       -2.2314       2.0252        -0.6195       0.4134
  193      -0.4334       -0.5617       0.1283         0.5732      -1.0066
 Sum       26.5635        7.0238      19.5397        -7.6995      34.2630

 Contributions to Isotropic shielding for atom  105 (    30.7013 ppm):
                         Standard Origin              Atomic Origin
 NLMO      Total    Paramagnetic  Diamagnetic   Paramagnetic  Diamagnetic
  120      -0.5184        0.0836      -0.6020        -1.4262       0.9078
  121      -0.0921        0.4124      -0.5045        -1.6177       1.5256
  123       2.6592       -5.1226       7.7818         1.2460       1.4132
  124      25.8663        1.0397      24.8266         0.7075      25.1588
  125       1.4633        0.2147       1.2486        -0.4119       1.8752
  126       1.5882        0.2594       1.3288        -0.4572       2.0453
  194       0.0491       -0.9953       1.0445        -0.4822       0.5313
 Sum       31.0156       -4.1082      35.1238        -2.4417      33.4572

 Contributions to Isotropic shielding for atom  106 (    30.5918 ppm):
                         Standard Origin              Atomic Origin
 NLMO      Total    Paramagnetic  Diamagnetic   Paramagnetic  Diamagnetic
  120      -1.0542        0.5579      -1.6121        -1.9478       0.8936
  121      -0.2853        1.5570      -1.8422        -1.8461       1.5609
  122      -1.0194        0.5427      -1.5622        -1.8022       0.7828
  123       0.7432        1.3517      -0.6084        -0.7227       1.4659
  124       1.8507       -0.5414       2.3921        -0.0210       1.8717
  125      26.2859        0.5388      25.7471         1.0579      25.2280
  126       1.1847        3.7646      -2.5799        -0.8578       2.0425
  191       0.4198       -1.2142       1.6340         1.1929      -0.7731
  193       1.3585       -0.6525       2.0110         1.4189      -0.0604
 Sum       29.4840        5.9046      23.5794        -3.5278      33.0119

 Contributions to Isotropic shielding for atom  107 (    30.5347 ppm):
                         Standard Origin              Atomic Origin
 NLMO      Total    Paramagnetic  Diamagnetic   Paramagnetic  Diamagnetic
  120      -0.4635        0.0172      -0.4807        -1.0839       0.6204
  121       0.0095        0.5847      -0.5752        -1.0209       1.0304
  123       0.6071        2.4295      -1.8224        -1.4675       2.0746
  124       1.7679        0.0028       1.7652        -0.2277       1.9956
  125       0.8243        3.5349      -2.7106        -1.1614       1.9856
  126      26.0388        0.4260      25.6128         0.8728      25.1660
  193       0.5835       -0.8636       1.4471         1.0524      -0.4689
 Sum       29.3675        6.1315      23.2360        -3.0362      32.4037

 Contributions to Isotropic shielding for atom  108 (    30.9693 ppm):
                         Standard Origin              Atomic Origin
 NLMO      Total    Paramagnetic  Diamagnetic   Paramagnetic  Diamagnetic
   76      -0.6060        0.0827      -0.6887        -1.4581       0.8521
   81      -0.6261        1.6127      -2.2389        -1.3500       0.7238
   82       1.2105       -0.8415       2.0520         0.0267       1.1838
   86      -0.2796        0.9844      -1.2640        -1.1101       0.8305
   87      -0.2413        1.0442      -1.2855        -1.1209       0.8796
   92      -0.1223       -1.1514       1.0291        -0.6448       0.5225
  127      25.9967        0.1314      25.8653         0.6322      25.3645
  128       1.7189        3.0423      -1.3234        -0.2669       1.9858
  129       1.1371        2.6783      -1.5412        -0.6929       1.8300
  190       1.4731        0.0632       1.4099         1.4753      -0.0022
  193      -0.8738        0.0480      -0.9217         0.3986      -1.2724
 Sum       28.7872        7.6943      21.0929        -4.1108      32.8980

 Contributions to Isotropic shielding for atom  109 (    30.7199 ppm):
                         Standard Origin              Atomic Origin
 NLMO      Total    Paramagnetic  Diamagnetic   Paramagnetic  Diamagnetic
   75      -0.5655        0.7282      -1.2937        -1.2815       0.7160
   76      -0.9144        0.2212      -1.1355        -2.2792       1.3648
   79      -0.3858        1.0853      -1.4711        -1.0170       0.6312
   82       1.8627       -1.7098       3.5725         0.6169       1.2458
  127       1.5549        3.0592      -1.5043        -0.4134       1.9683
  128      25.9266        0.2856      25.6411         0.6038      25.3229
  129       1.3789        2.1156      -0.7367        -0.4174       1.7963
 Sum       28.8575        5.7853      23.0722        -4.1878      33.0453

 Contributions to Isotropic shielding for atom  110 (    31.9113 ppm):
                         Standard Origin              Atomic Origin
 NLMO      Total    Paramagnetic  Diamagnetic   Paramagnetic  Diamagnetic
   75      -0.3535        0.9969      -1.3504        -0.9688       0.6153
   76      -1.2432        0.4006      -1.6438        -2.4341       1.1909
   79      -0.5742        1.4164      -1.9906        -1.2323       0.6581
   81      -0.3562        0.6471      -1.0033        -0.5490       0.1928
   82       1.7078       -1.9981       3.7059         0.9349       0.7729
   86      -0.1605        0.3675      -0.5280        -1.1895       1.0290
  127       1.7369        3.4144      -1.6776        -0.1762       1.9130
  128       1.8470        2.5614      -0.7144        -0.0501       1.8971
  129      26.6866        0.5471      26.1395         0.9962      25.6904
 Sum       29.2907        8.3533      20.9374        -4.6689      33.9596
 
 1\1\GINC-PCSN02\SP\RHF\STO-3G\C45H56N4O5\ABENIDD\30-May-2024\0\\# nmr=
 giao hf/sto-3g pop=nbo geom=connectivity\\pleiokomenine_C_1a\\0,1\C,0,
 0.,0.,0.\C,0,1.4013,0.,0.\C,0,2.0942,1.2293,0.\C,0,1.409,2.4528,-0.028
 5\C,0,0.0271,2.4424,-0.0878\C,0,-0.6623,1.2138,-0.052\N,0,-0.8603,3.54
 14,-0.2389\C,0,-2.1429,1.5,-0.0709\C,0,-2.0648,2.8849,-0.8061\C,0,-3.1
 15,0.5901,-0.8231\C,0,-1.8056,2.6409,-2.3648\C,0,-2.8988,1.7769,-2.994
 \C,0,-3.8994,1.3513,-1.9139\N,0,-4.1024,0.2042,0.1938\C,0,-4.9375,-0.8
 843,-0.264\C,0,-5.795,-0.329,-1.4144\C,0,-4.9717,0.3979,-2.4947\C,0,-2
 .6161,1.3934,1.4019\C,0,-3.3783,0.0664,1.4364\C,0,-4.5128,2.6654,-1.31
 43\C,0,-3.4089,3.6419,-0.7807\C,0,-3.7983,4.335,0.5182\O,0,-3.0421,4.6
 808,1.414\O,0,-5.1332,4.6382,0.5051\C,0,-5.5884,5.3159,1.6765\C,0,-0.3
 383,4.7799,-0.7803\C,0,2.1521,-1.3121,-0.0713\C,0,2.3007,-1.8267,-1.48
 82\C,0,1.1909,-2.3596,-2.1595\C,0,3.5288,-1.7169,-2.17\C,0,3.6608,-2.1
 385,-3.5004\C,0,2.5579,-2.6639,-4.153\C,0,1.3266,-2.7443,-3.4833\N,0,2
 .4794,-3.1613,-5.4803\C,0,0.2661,-3.2001,-4.4546\C,0,1.2325,-3.9622,-5
 .4501\C,0,-0.8545,-4.1547,-4.009\C,0,1.5423,-5.4034,-4.8512\C,0,0.2597
 ,-6.2382,-4.72\C,0,-0.9575,-5.3403,-5.028\N,0,-2.0972,-3.2883,-3.8754\
 C,0,-3.388,-4.0634,-3.9126\C,0,-3.4665,-5.1631,-4.9535\C,0,-2.2721,-6.
 103,-4.8372\C,0,-0.4713,-1.9212,-4.934\C,0,-1.9563,-2.2578,-4.9504\C,0
 ,-0.7863,-4.9305,-6.5313\C,0,0.5766,-4.249,-6.8093\C,0,0.443,-3.0799,-
 7.769\O,0,-0.6094,-2.5061,-8.0231\O,0,1.6351,-2.8007,-8.363\C,0,1.6014
 ,-1.6817,-9.2488\C,0,3.7092,-3.69,-6.051\O,0,-2.0798,-2.6418,-2.646\H,
 0,-0.5607,-0.93,0.0074\H,0,3.1817,1.2382,-0.0001\H,0,1.9663,3.3817,-0.
 0399\H,0,-2.5974,-0.2855,-1.2358\H,0,-1.7608,3.6026,-2.8933\H,0,-0.834
 ,2.17,-2.5593\H,0,-3.4036,2.335,-3.7921\H,0,-2.4409,0.901,-3.4704\H,0,
 -4.347,-1.7466,-0.5958\H,0,-5.6037,-1.2261,0.5361\H,0,-6.3643,-1.1445,
 -1.8753\H,0,-6.533,0.3728,-1.0042\H,0,-4.4758,-0.3693,-3.1043\H,0,-5.6
 454,0.941,-3.1679\H,0,-3.3106,2.1902,1.6735\H,0,-1.8105,1.3996,2.145\H
 ,0,-2.7024,-0.796,1.4395\H,0,-4.0407,0.0117,2.3052\H,0,-5.0896,3.1843,
 -2.0917\H,0,-5.2337,2.4206,-0.526\H,0,-3.3424,4.4797,-1.4914\H,0,-6.66
 69,5.469,1.581\H,0,-5.4035,4.7095,2.5689\H,0,-5.1062,6.2944,1.7634\H,0
 ,0.1487,4.6321,-1.7503\H,0,0.3853,5.2271,-0.0904\H,0,-1.144,5.509,-0.9
 118\H,0,1.636,-2.068,0.5354\H,0,3.139,-1.1987,0.3958\H,0,0.2214,-2.421
 7,-1.6732\H,0,4.3917,-1.2849,-1.6679\H,0,4.6162,-2.0341,-4.0011\H,0,-0
 .6899,-4.5506,-2.9972\H,0,2.2526,-5.9428,-5.491\H,0,2.0276,-5.3394,-3.
 8693\H,0,0.1969,-6.662,-3.7099\H,0,0.2977,-7.0917,-5.4088\H,0,-3.4914,
 -4.5038,-2.9122\H,0,-4.1869,-3.3247,-4.0433\H,0,-4.3898,-5.7343,-4.801
 3\H,0,-3.5354,-4.7356,-5.9581\H,0,-2.2877,-6.5846,-3.8509\H,0,-2.3643,
 -6.9071,-5.5773\H,0,-0.3413,-1.0995,-4.2147\H,0,-0.114,-1.5133,-5.8783
 \H,0,-2.2968,-2.6874,-5.8899\H,0,-2.5924,-1.4053,-4.6918\H,0,-1.6228,-
 4.3246,-6.8775\H,0,-0.8393,-5.8359,-7.1537\H,0,1.1857,-4.9824,-7.3598\
 H,0,1.2741,-0.7811,-8.7196\H,0,0.9482,-1.8905,-10.1017\H,0,2.6157,-1.5
 141,-9.6213\H,0,3.5122,-4.1816,-7.0086\H,0,4.4188,-2.8795,-6.2492\H,0,
 4.1874,-4.4222,-5.3906\\Version=ES64L-G16RevB.01\State=1-A\HF=-2300.22
 04527\RMSD=3.814e-09\Dipole=0.1171182,-1.6408101,-2.1753478\Quadrupole
 =-1.9459566,8.2088898,-6.2629332,-2.1343426,-5.9269693,2.7803854\PG=C0
 1 [X(C45H56N4O5)]\\@


 IT WAS AN ACT OF DESPARATION. FOR SIX YEARS I HAD STRUGGLED WITH THE
 BLACKBODY THEORY. I KNEW THE PROBLEM WAS FUNDAMENTAL, AND I KNEW
 THE ANSWER. I HAD TO FIND A THEORETICAL EXPLANATION AT ANY COST,
 EXCEPT FOR THE INVIOLABLITY OF THE TWO LAWS OF THERMODYNAMICS.
   -- MAX PLANCK, 1931
 Job cpu time:       0 days  0 hours 11 minutes 52.8 seconds.
 Elapsed time:       0 days  0 hours  1 minutes 59.9 seconds.
 File lengths (MBytes):  RWF=     67 Int=      0 D2E=      0 Chk=     10 Scr=      1
 Normal termination of Gaussian 16 at Thu May 30 09:23:41 2024.
