 Entering Gaussian System, Link 0=g16
 Input=1_pleiokomenine_1a_c_10.gjf
 Output=1_pleiokomenine_1a_c_10.log
 Initial command:
 /opt/gaussian/g16/l1.exe "/data/abenidd/Elvis/pleiokomenine_C/NMR_HF/1a/1_pleiokomenine_1a_c_10/Gau-24050.inp" -scrdir="/data/abenidd/Elvis/pleiokomenine_C/NMR_HF/1a/1_pleiokomenine_1a_c_10/"
 Entering Link 1 = /opt/gaussian/g16/l1.exe PID=     24052.
  
 Copyright (c) 1988-2017, Gaussian, Inc.  All Rights Reserved.
  
 This is part of the Gaussian(R) 16 program.  It is based on
 the Gaussian(R) 09 system (copyright 2009, Gaussian, Inc.),
 the Gaussian(R) 03 system (copyright 2003, Gaussian, Inc.),
 the Gaussian(R) 98 system (copyright 1998, Gaussian, Inc.),
 the Gaussian(R) 94 system (copyright 1995, Gaussian, Inc.),
 the Gaussian 92(TM) system (copyright 1992, Gaussian, Inc.),
 the Gaussian 90(TM) system (copyright 1990, Gaussian, Inc.),
 the Gaussian 88(TM) system (copyright 1988, Gaussian, Inc.),
 the Gaussian 86(TM) system (copyright 1986, Carnegie Mellon
 University), and the Gaussian 82(TM) system (copyright 1983,
 Carnegie Mellon University). Gaussian is a federally registered
 trademark of Gaussian, Inc.
  
 This software contains proprietary and confidential information,
 including trade secrets, belonging to Gaussian, Inc.
  
 This software is provided under written license and may be
 used, copied, transmitted, or stored only in accord with that
 written license.
  
 The following legend is applicable only to US Government
 contracts under FAR:
  
                    RESTRICTED RIGHTS LEGEND
  
 Use, reproduction and disclosure by the US Government is
 subject to restrictions as set forth in subparagraphs (a)
 and (c) of the Commercial Computer Software - Restricted
 Rights clause in FAR 52.227-19.
  
 Gaussian, Inc.
 340 Quinnipiac St., Bldg. 40, Wallingford CT 06492
  
  
 ---------------------------------------------------------------
 Warning -- This program may not be used in any manner that
 competes with the business of Gaussian, Inc. or will provide
 assistance to any competitor of Gaussian, Inc.  The licensee
 of this program is prohibited from giving any competitor of
 Gaussian, Inc. access to this program.  By using this program,
 the user acknowledges that Gaussian, Inc. is engaged in the
 business of creating and licensing software in the field of
 computational chemistry and represents and warrants to the
 licensee that it is not a competitor of Gaussian, Inc. and that
 it will not use this program in any manner prohibited above.
 ---------------------------------------------------------------
  

 Cite this work as:
 Gaussian 16, Revision B.01,
 M. J. Frisch, G. W. Trucks, H. B. Schlegel, G. E. Scuseria, 
 M. A. Robb, J. R. Cheeseman, G. Scalmani, V. Barone, 
 G. A. Petersson, H. Nakatsuji, X. Li, M. Caricato, A. V. Marenich, 
 J. Bloino, B. G. Janesko, R. Gomperts, B. Mennucci, H. P. Hratchian, 
 J. V. Ortiz, A. F. Izmaylov, J. L. Sonnenberg, D. Williams-Young, 
 F. Ding, F. Lipparini, F. Egidi, J. Goings, B. Peng, A. Petrone, 
 T. Henderson, D. Ranasinghe, V. G. Zakrzewski, J. Gao, N. Rega, 
 G. Zheng, W. Liang, M. Hada, M. Ehara, K. Toyota, R. Fukuda, 
 J. Hasegawa, M. Ishida, T. Nakajima, Y. Honda, O. Kitao, H. Nakai, 
 T. Vreven, K. Throssell, J. A. Montgomery, Jr., J. E. Peralta, 
 F. Ogliaro, M. J. Bearpark, J. J. Heyd, E. N. Brothers, K. N. Kudin, 
 V. N. Staroverov, T. A. Keith, R. Kobayashi, J. Normand, 
 K. Raghavachari, A. P. Rendell, J. C. Burant, S. S. Iyengar, 
 J. Tomasi, M. Cossi, J. M. Millam, M. Klene, C. Adamo, R. Cammi, 
 J. W. Ochterski, R. L. Martin, K. Morokuma, O. Farkas, 
 J. B. Foresman, and D. J. Fox, Gaussian, Inc., Wallingford CT, 2016.
 
 ******************************************
 Gaussian 16:  ES64L-G16RevB.01 20-Dec-2017
                30-May-2024 
 ******************************************
 %nprocshared=8
 Will use up to    8 processors via shared memory.
 ----------------------------------------------
 # nmr=giao hf/sto-3g pop=nbo geom=connectivity
 ----------------------------------------------
 1/38=1,57=2,172=1/1;
 2/12=2,17=6,18=5,40=1/2;
 3/6=3,11=9,25=1,30=1/1,2,3,8;
 4//1;
 5/5=2,38=5/2;
 8/6=1,10=90,11=11/1;
 10/13=100,45=16/2;
 6/7=2,8=2,9=2,10=2,28=1,40=1,64=1/1,7;
 99/9=1/99;
 ------------------
 pleiokomenine_C_1a
 ------------------
 Symbolic Z-matrix:
 Charge =  0 Multiplicity = 1
 C                     0.        0.        0. 
 C                     1.4013    0.        0. 
 C                     2.0945    1.2294    0. 
 C                     1.4098    2.4533   -0.028 
 C                     0.0281    2.4426   -0.0879 
 C                    -0.6611    1.2141   -0.0528 
 N                    -0.862     3.5426   -0.2383 
 C                    -2.1401    1.504    -0.0647 
 C                    -2.0622    2.8818   -0.813 
 C                    -3.1261    0.5952   -0.7969 
 C                    -1.7981    2.6246   -2.3682 
 C                    -2.8784    1.7368   -2.9879 
 C                    -3.8943    1.3395   -1.911 
 N                    -4.1224    0.2515    0.226 
 C                    -4.9713   -0.8367   -0.2111 
 C                    -5.8091   -0.3086   -1.3888 
 C                    -4.9662    0.3791   -2.48 
 C                    -2.5888    1.4162    1.4169 
 C                    -3.4007    0.1198    1.4708 
 C                    -4.511     2.6697   -1.3489 
 C                    -3.409     3.6371   -0.7963 
 C                    -3.7412    4.3756    0.4935 
 O                    -3.0624    5.2877    0.9531 
 O                    -4.9191    3.9727    1.0424 
 C                    -5.2672    4.6444    2.2531 
 C                    -0.331     4.7693   -0.8045 
 C                     2.1522   -1.3122   -0.0698 
 C                     2.2948   -1.8324   -1.4852 
 C                     1.1821   -2.3683   -2.1493 
 C                     3.5198   -1.7255   -2.173 
 C                     3.6459   -2.1532   -3.5021 
 C                     2.5401   -2.6814   -4.1475 
 C                     1.3118   -2.7584   -3.472 
 N                     2.4555   -3.1851   -5.472 
 C                     0.2469   -3.218    -4.4365 
 C                     1.2083   -3.9853   -5.4325 
 C                    -0.8724   -4.1695   -3.9811 
 C                     1.52     -5.4238   -4.8282 
 C                     0.2374   -6.2571   -4.6869 
 C                    -0.9806   -5.3599   -4.9938 
 N                    -2.1137   -3.3014   -3.8459 
 C                    -3.4052   -4.0758   -3.8733 
 C                    -3.4892   -5.1805   -4.9085 
 C                    -2.2949   -6.1207   -4.7933 
 C                    -0.4918   -1.9408   -4.9187 
 C                    -1.977    -2.2767   -4.9269 
 C                    -0.8159   -4.9577   -6.5 
 C                     0.5461   -4.2782   -6.7874 
 C                     0.4088   -3.1136   -7.752 
 O                    -0.6446   -2.5407   -8.004 
 O                     1.5982   -2.8378   -8.3526 
 C                     1.561    -1.7229   -9.2436 
 C                     3.6825   -3.717    -6.0457 
 O                    -2.0902   -2.6485   -2.6197 
 H                    -0.5616   -0.9295    0.0098 
 H                     3.1821    1.238    -0.0002 
 H                     1.9672    3.3822   -0.0391 
 H                    -2.6219   -0.2994   -1.1849 
 H                    -1.7682    3.5817   -2.9062 
 H                    -0.8193    2.1675   -2.5594 
 H                    -3.3718    2.2679   -3.8112 
 H                    -2.4102    0.8481   -3.4291 
 H                    -4.3901   -1.7174   -0.5099 
 H                    -5.6506   -1.1447    0.5917 
 H                    -6.3794   -1.1327   -1.8326 
 H                    -6.5465    0.4105   -1.0089 
 H                    -4.469    -0.4089   -3.0613 
 H                    -5.6268    0.9087   -3.1767 
 H                    -3.2283    2.2494    1.7062 
 H                    -1.7686    1.3829    2.1438 
 H                    -2.7528   -0.7641    1.49 
 H                    -4.063     0.102     2.3411 
 H                    -5.0482    3.1851   -2.1569 
 H                    -5.2749    2.4395   -0.6014 
 H                    -3.3548    4.4631   -1.5229 
 H                    -6.2021    4.2135    2.6219 
 H                    -4.4942    4.4938    3.0133 
 H                    -5.4272    5.7107    2.0661 
 H                     0.1763    4.5955   -1.76 
 H                     0.378     5.2354   -0.1119 
 H                    -1.1324    5.4942   -0.9767 
 H                     1.6389   -2.0658    0.5423 
 H                     3.1412   -1.197     0.3924 
 H                     0.2149   -2.4289   -1.6585 
 H                     4.3849   -1.2913   -1.6768 
 H                     4.5991   -2.0512   -4.0075 
 H                    -0.7035   -4.5606   -2.9681 
 H                     2.2269   -5.9668   -5.4687 
 H                     2.0099   -5.3555   -3.8489 
 H                     0.1789   -6.6758   -3.6745 
 H                     0.2717   -7.114    -5.3716 
 H                    -3.5042   -4.5113   -2.8703 
 H                    -4.2043   -3.3372   -4.0039 
 H                    -4.4122   -5.7503   -4.7493 
 H                    -3.5625   -4.7578   -5.9149 
 H                    -2.3062   -6.5976   -3.8046 
 H                    -2.3911   -6.9283   -5.529 
 H                    -0.358    -1.1159   -4.2039 
 H                    -0.1383   -1.5377   -5.8664 
 H                    -2.3218   -2.7111   -5.8626 
 H                    -2.6116   -1.4225   -4.6703 
 H                    -1.6536   -4.3533   -6.8455 
 H                    -0.872    -5.8662   -7.1175 
 H                     1.1523   -5.0145   -7.3372 
 H                     1.2364   -0.8197   -8.7172 
 H                     0.9039   -1.9355   -10.0925 
 H                     2.5736   -1.5575   -9.6214 
 H                     3.481    -4.2129   -7.0002 
 H                     4.3916   -2.9078   -6.2508 
 H                     4.1633   -4.4464   -5.3841 
 
 Stoichiometry    C45H56N4O5
 Framework group  C1[X(C45H56N4O5)]
 Deg. of freedom   324
 Full point group                 C1      NOp   1
 Largest Abelian subgroup         C1      NOp   1
 Largest concise Abelian subgroup C1      NOp   1
                         Standard orientation:                         
 ---------------------------------------------------------------------
 Center     Atomic      Atomic             Coordinates (Angstroms)
 Number     Number       Type             X           Y           Z
 ---------------------------------------------------------------------
      1          6           0        1.795283    1.745578   -1.617144
      2          6           0        1.262297    3.037252   -1.722723
      3          6           0        1.849918    4.091548   -0.991210
      4          6           0        2.940649    3.868554   -0.137918
      5          6           0        3.422048    2.579933    0.005292
      6          6           0        2.855048    1.536308   -0.752862
      7          7           0        4.430070    2.102458    0.888925
      8          6           0        3.611029    0.268685   -0.447493
      9          6           0        4.076669    0.663547    0.998749
     10          6           0        2.907873   -1.086538   -0.391143
     11          6           0        2.844663    0.524138    2.007348
     12          6           0        2.260887   -0.889504    1.997930
     13          6           0        3.032407   -1.755210    0.995472
     14          7           0        3.675946   -1.926346   -1.319504
     15          6           0        2.977341   -3.159642   -1.614121
     16          6           0        2.939651   -3.977611   -0.311324
     17          6           0        2.426248   -3.175987    0.900264
     18          6           0        4.629235    0.107379   -1.605688
     19          6           0        4.073415   -1.068709   -2.412299
     20          6           0        4.532659   -1.767315    1.458943
     21          6           0        5.122161   -0.319549    1.568920
     22          6           0        6.550627   -0.130821    1.075777
     23          8           0        7.205786    0.890472    1.253695
     24          8           0        7.056180   -1.248226    0.486802
     25          6           0        8.395944   -1.111774    0.012923
     26          6           0        4.730388    2.898582    2.065076
     27          6           0        0.025285    3.272825   -2.562305
     28          6           0       -1.256910    2.959176   -1.819406
     29          6           0       -1.611916    1.626102   -1.568003
     30          6           0       -2.070495    3.993565   -1.316177
     31          6           0       -3.229456    3.712379   -0.579238
     32          6           0       -3.570290    2.391825   -0.337784
     33          6           0       -2.742287    1.362154   -0.812272
     34          7           0       -4.698915    1.891623    0.363053
     35          6           0       -3.246809    0.041750   -0.285495
     36          6           0       -4.754412    0.479180   -0.083392
     37          6           0       -3.200738   -1.224765   -1.156925
     38          6           0       -5.498551    0.395528   -1.487271
     39          6           0       -5.501091   -1.041355   -2.030207
     40          6           0       -4.604724   -1.919372   -1.131156
     41          7           0       -2.044617   -2.049958   -0.613654
     42          6           0       -2.106413   -3.507250   -0.989018
     43          6           0       -3.474057   -4.154880   -0.893186
     44          6           0       -4.508711   -3.349717   -1.670876
     45          6           0       -2.377093   -0.299449    0.954106
     46          6           0       -2.049811   -1.783496    0.858158
     47          6           0       -5.312291   -1.918316    0.267728
     48          6           0       -5.536019   -0.488007    0.818657
     49          6           0       -5.268763   -0.404696    2.311049
     50          8           0       -4.625901   -1.230100    2.948862
     51          8           0       -5.898395    0.670532    2.857772
     52          6           0       -5.658503    0.843328    4.254504
     53          6           0       -5.885636    2.733764    0.371410
     54          8           0       -0.849706   -1.574378   -1.139400
     55          1           0        1.371278    0.915766   -2.174901
     56          1           0        1.442080    5.096931   -1.067518
     57          1           0        3.365039    4.694045    0.420770
     58          1           0        1.858773   -0.997841   -0.701936
     59          1           0        3.166184    0.772652    3.027762
     60          1           0        2.038642    1.235557    1.788805
     61          1           0        2.311556   -1.321559    3.004953
     62          1           0        1.196949   -0.842122    1.734403
     63          1           0        1.963265   -2.978299   -1.990249
     64          1           0        3.514624   -3.737075   -2.374844
     65          1           0        2.313845   -4.866157   -0.453431
     66          1           0        3.950961   -4.342094   -0.088631
     67          1           0        1.335115   -3.094516    0.806170
     68          1           0        2.617089   -3.738576    1.821856
     69          1           0        5.626771   -0.145558   -1.248165
     70          1           0        4.739861    0.990494   -2.246070
     71          1           0        3.226713   -0.766449   -3.039321
     72          1           0        4.846559   -1.519589   -3.041056
     73          1           0        4.598496   -2.242137    2.447525
     74          1           0        5.122087   -2.406970    0.796593
     75          1           0        5.228034   -0.128817    2.648537
     76          1           0        8.679268   -2.048922   -0.474117
     77          1           0        8.463715   -0.305456   -0.724214
     78          1           0        9.080498   -0.934616    0.848127
     79          1           0        3.831293    3.125646    2.648694
     80          1           0        5.208082    3.841382    1.777739
     81          1           0        5.431576    2.371999    2.719615
     82          1           0        0.073966    2.661578   -3.473383
     83          1           0        0.012252    4.311329   -2.917776
     84          1           0       -0.985102    0.807496   -1.910088
     85          1           0       -1.794672    5.032100   -1.485021
     86          1           0       -3.831229    4.529288   -0.198511
     87          1           0       -2.914741   -1.008427   -2.195703
     88          1           0       -6.536091    0.741796   -1.395585
     89          1           0       -5.037203    1.056539   -2.231528
     90          1           0       -5.148081   -1.044065   -3.068986
     91          1           0       -6.527260   -1.429524   -2.054065
     92          1           0       -1.755395   -3.554756   -2.028248
     93          1           0       -1.371110   -4.019168   -0.357815
     94          1           0       -3.419940   -5.167871   -1.308959
     95          1           0       -3.770488   -4.271166    0.153473
     96          1           0       -4.228484   -3.333091   -2.732142
     97          1           0       -5.482374   -3.851227   -1.614368
     98          1           0       -1.418564    0.238587    0.921819
     99          1           0       -2.813442   -0.017775    1.911104
    100          1           0       -2.793119   -2.426141    1.324662
    101          1           0       -1.059646   -2.031045    1.253772
    102          1           0       -4.786982   -2.552047    0.981063
    103          1           0       -6.298607   -2.394457    0.166261
    104          1           0       -6.613499   -0.282603    0.725157
    105          1           0       -4.586909    0.949425    4.451128
    106          1           0       -6.076230    0.004264    4.819381
    107          1           0       -6.160740    1.760691    4.573335
    108          1           0       -6.737559    2.198854    0.802326
    109          1           0       -5.720767    3.621730    0.991110
    110          1           0       -6.167958    3.056442   -0.637095
 ---------------------------------------------------------------------
 Rotational constants (GHZ):           0.0958478           0.0343508           0.0306173
 Standard basis: STO-3G (5D, 7F)
 There are   326 symmetry adapted cartesian basis functions of A   symmetry.
 There are   326 symmetry adapted basis functions of A   symmetry.
   326 basis functions,   978 primitive gaussians,   326 cartesian basis functions
   197 alpha electrons      197 beta electrons
       nuclear repulsion energy      8200.5234081865 Hartrees.
 NAtoms=  110 NActive=  110 NUniq=  110 SFac= 1.00D+00 NAtFMM=   60 NAOKFM=T Big=T
 Integral buffers will be    131072 words long.
 Raffenetti 1 integral format.
 Two-electron integral symmetry is turned on.
 One-electron integrals computed using PRISM.
 NBasis=   326 RedAO= T EigKep=  1.72D-01  NBF=   326
 NBsUse=   326 1.00D-06 EigRej= -1.00D+00 NBFU=   326
 ExpMin= 1.69D-01 ExpMax= 1.31D+02 ExpMxC= 1.31D+02 IAcc=3 IRadAn=         5 AccDes= 0.00D+00
 Harris functional with IExCor=  205 and IRadAn=       5 diagonalized for initial guess.
 HarFok:  IExCor=  205 AccDes= 0.00D+00 IRadAn=         5 IDoV= 1 UseB2=F ITyADJ=14
 ICtDFT=  3500011 ScaDFX=  1.000000  1.000000  1.000000  1.000000
 FoFCou: FMM=F IPFlag=           0 FMFlag=      100000 FMFlg1=        2001
         NFxFlg=           0 DoJE=T BraDBF=F KetDBF=T FulRan=T
         wScrn=  0.000000 ICntrl=       500 IOpCl=  0 I1Cent=   200000004 NGrid=           0
         NMat0=    1 NMatS0=      1 NMatT0=    0 NMatD0=    1 NMtDS0=    0 NMtDT0=    0
 Petite list used in FoFCou.
 Requested convergence on RMS density matrix=1.00D-08 within 128 cycles.
 Requested convergence on MAX density matrix=1.00D-06.
 Requested convergence on             energy=1.00D-06.
 No special actions if energy rises.
 Integral accuracy reduced to 1.0D-05 until final iterations.
 Initial convergence to 1.0D-05 achieved.  Increase integral accuracy.
 SCF Done:  E(RHF) =  -2300.21962995     A.U. after   16 cycles
            NFock= 16  Conv=0.34D-08     -V/T= 2.0092
 Range of M.O.s used for correlation:     1   326
 NBasis=   326 NAE=   197 NBE=   197 NFC=     0 NFV=     0
 NROrb=    326 NOA=   197 NOB=   197 NVA=   129 NVB=   129
          Differentiating once with respect to magnetic field using GIAOs.
          Electric field/nuclear overlap derivatives assumed to be zero.
 FoFCou: FMM=F IPFlag=           0 FMFlag=      100000 FMFlg1=        2001
         NFxFlg=           0 DoJE=F BraDBF=F KetDBF=T FulRan=T
         wScrn=  0.000000 ICntrl=      6100 IOpCl=  0 I1Cent=           7 NGrid=         110
         NMat0=    1 NMatS0=      1 NMatT0=    0 NMatD0=    1 NMtDS0=    0 NMtDT0=    0
 Symmetry not used in FoFCou.
 FoFJK:  IHMeth= 1 ICntrl=    6127 DoSepK=F KAlg= 0 I1Cent=           0 FoldK=F
 IRaf=         1 NMat=       1 IRICut=       1 DoRegI=T DoRafI=F ISym2E= 0 IDoP0=0 IntGTp=1.
          There are     3 degrees of freedom in the 1st order CPHF.  IDoFFX=0 NUNeed=     3.
      3 vectors produced by pass  0 Test12= 8.47D-13 3.33D-08 XBig12= 1.81D+02 2.58D+00.
 AX will form     3 AO Fock derivatives at one time.
      3 vectors produced by pass  1 Test12= 8.47D-13 3.33D-08 XBig12= 7.68D-01 3.55D-01.
      3 vectors produced by pass  2 Test12= 8.47D-13 3.33D-08 XBig12= 1.79D-02 3.37D-02.
      3 vectors produced by pass  3 Test12= 8.47D-13 3.33D-08 XBig12= 5.31D-04 6.90D-03.
      3 vectors produced by pass  4 Test12= 8.47D-13 3.33D-08 XBig12= 1.55D-05 6.26D-04.
      3 vectors produced by pass  5 Test12= 8.47D-13 3.33D-08 XBig12= 2.75D-07 6.97D-05.
      3 vectors produced by pass  6 Test12= 8.47D-13 3.33D-08 XBig12= 8.70D-09 1.82D-05.
      3 vectors produced by pass  7 Test12= 8.47D-13 3.33D-08 XBig12= 3.27D-10 2.57D-06.
      3 vectors produced by pass  8 Test12= 8.47D-13 3.33D-08 XBig12= 6.16D-12 3.26D-07.
      2 vectors produced by pass  9 Test12= 8.47D-13 3.33D-08 XBig12= 1.17D-13 6.46D-08.
 InvSVY:  IOpt=1 It=  1 EMax= 5.33D-15
 Solved reduced A of dimension    29 with     3 vectors.
 Calculating GIAO nuclear magnetic shielding tensors.
 SCF GIAO Magnetic shielding tensor (ppm):
      1  C    Isotropic =   125.8694   Anisotropy =   148.5119
   XX=   145.1788   YX=    -6.6357   ZX=   -69.4224
   XY=   -14.1789   YY=    70.9682   ZY=   -50.8965
   XZ=   -58.5605   YZ=   -51.5160   ZZ=   161.4612
   Eigenvalues:    33.9360   118.7948   224.8773
      2  C    Isotropic =   121.1734   Anisotropy =   156.3699
   XX=   112.1488   YX=    27.8157   ZX=   -83.7063
   XY=    24.3609   YY=   100.4320   ZY=   -15.5813
   XZ=   -86.5721   YZ=   -15.8460   ZZ=   150.9394
   Eigenvalues:    42.1334    95.9668   225.4200
      3  C    Isotropic =   120.0590   Anisotropy =   151.2517
   XX=   136.9448   YX=    43.4552   ZX=   -58.4870
   XY=    43.5149   YY=    47.2665   ZY=    -9.4718
   XZ=   -49.8096   YZ=   -12.1794   ZZ=   175.9658
   Eigenvalues:    28.7858   110.4978   220.8935
      4  C    Isotropic =   134.1149   Anisotropy =   143.0684
   XX=   157.3056   YX=    -4.5316   ZX=   -63.8143
   XY=    -4.0854   YY=    85.6089   ZY=   -37.9245
   XZ=   -66.2297   YZ=   -51.1071   ZZ=   159.4302
   Eigenvalues:    52.2058   120.6451   229.4938
      5  C    Isotropic =   108.1275   Anisotropy =   129.8174
   XX=   113.5478   YX=    26.3169   ZX=   -72.1180
   XY=    12.4607   YY=    94.5261   ZY=   -13.0057
   XZ=   -77.3824   YZ=   -11.4684   ZZ=   116.3087
   Eigenvalues:    39.6282    90.0819   194.6725
      6  C    Isotropic =   117.5003   Anisotropy =   143.2242
   XX=   137.4992   YX=    14.9172   ZX=   -62.3457
   XY=    29.0618   YY=    54.6915   ZY=   -10.2689
   XZ=   -57.6451   YZ=    -9.8248   ZZ=   160.3103
   Eigenvalues:    48.9023    90.6156   212.9831
      7  N    Isotropic =   273.2061   Anisotropy =    83.1171
   XX=   267.7374   YX=   -10.1390   ZX=    32.1532
   XY=   -21.8604   YY=   271.7190   ZY=   -43.6486
   XZ=    19.9138   YZ=   -31.3628   ZZ=   280.1618
   Eigenvalues:   236.6775   254.3232   328.6174
      8  C    Isotropic =   198.9024   Anisotropy =    13.4053
   XX=   201.2223   YX=     1.8555   ZX=    -2.5904
   XY=     8.1960   YY=   199.1011   ZY=     5.0601
   XZ=     3.9439   YZ=     8.8827   ZZ=   196.3837
   Eigenvalues:   189.9286   198.9393   207.8393
      9  C    Isotropic =   179.1996   Anisotropy =    42.2456
   XX=   167.1494   YX=    17.3285   ZX=     9.0842
   XY=     2.3425   YY=   203.4650   ZY=     6.7427
   XZ=    23.4868   YZ=    -0.5056   ZZ=   166.9845
   Eigenvalues:   150.3396   179.8960   207.3634
     10  C    Isotropic =   189.1511   Anisotropy =    32.6847
   XX=   182.9402   YX=     1.9803   ZX=   -13.4714
   XY=    -2.2705   YY=   190.4134   ZY=    16.3925
   XZ=    -7.3897   YZ=    16.1147   ZZ=   194.0998
   Eigenvalues:   171.2399   185.2725   210.9410
     11  C    Isotropic =   212.6716   Anisotropy =    20.9327
   XX=   217.7935   YX=    -0.8943   ZX=   -12.9722
   XY=     6.5733   YY=   207.9289   ZY=    -1.2771
   XZ=    -8.0518   YZ=    -3.3574   ZZ=   212.2923
   Eigenvalues:   204.1739   207.2141   226.6267
     12  C    Isotropic =   214.6609   Anisotropy =    17.3590
   XX=   214.1694   YX=    -0.5993   ZX=    -5.5591
   XY=    -3.2045   YY=   218.6316   ZY=     8.6601
   XZ=    -4.9629   YZ=     8.9848   ZZ=   211.1817
   Eigenvalues:   204.1057   213.6435   226.2336
     13  C    Isotropic =   210.8105   Anisotropy =     7.8393
   XX=   213.3102   YX=     2.2011   ZX=    -1.4736
   XY=     3.4099   YY=   212.7601   ZY=    -1.7634
   XZ=     1.9184   YZ=    -2.5753   ZZ=   206.3612
   Eigenvalues:   205.5396   210.8552   216.0367
     14  N    Isotropic =   297.9462   Anisotropy =    56.9289
   XX=   264.1898   YX=     5.3982   ZX=   -35.0450
   XY=    16.7636   YY=   317.1119   ZY=    17.8428
   XZ=   -32.0844   YZ=    15.3903   ZZ=   312.5370
   Eigenvalues:   242.8446   315.0953   335.8988
     15  C    Isotropic =   201.8856   Anisotropy =    39.1210
   XX=   194.3607   YX=    13.3688   ZX=     3.0237
   XY=    13.8501   YY=   221.9049   ZY=     3.8906
   XZ=     3.7972   YZ=     2.5163   ZZ=   189.3912
   Eigenvalues:   186.9180   190.7726   227.9663
     16  C    Isotropic =   219.0841   Anisotropy =     7.9735
   XX=   212.1860   YX=     1.3715   ZX=    -3.7651
   XY=    -3.0270   YY=   222.5484   ZY=    -0.7155
   XZ=    -3.5129   YZ=    -2.1710   ZZ=   222.5179
   Eigenvalues:   210.9030   221.9495   224.3997
     17  C    Isotropic =   213.9610   Anisotropy =    21.5735
   XX=   209.5708   YX=     5.0764   ZX=    -0.9537
   XY=     7.3225   YY=   225.5799   ZY=     6.0402
   XZ=    -2.0646   YZ=     2.8028   ZZ=   206.7324
   Eigenvalues:   203.8744   209.6653   228.3434
     18  C    Isotropic =   208.7881   Anisotropy =    31.0561
   XX=   201.3217   YX=     5.4756   ZX=   -20.2749
   XY=     1.4289   YY=   212.1359   ZY=     7.1373
   XZ=   -17.6170   YZ=    13.6409   ZZ=   212.9067
   Eigenvalues:   184.3199   212.5522   229.4922
     19  C    Isotropic =   199.7065   Anisotropy =    40.5503
   XX=   186.8578   YX=    13.4465   ZX=   -10.6606
   XY=    14.4850   YY=   206.1920   ZY=   -14.9261
   XZ=   -16.8185   YZ=    -7.0449   ZZ=   206.0697
   Eigenvalues:   177.2338   195.1456   226.7401
     20  C    Isotropic =   212.7748   Anisotropy =    22.7123
   XX=   224.2373   YX=     6.0473   ZX=     7.0575
   XY=     5.7979   YY=   212.6309   ZY=    -3.5606
   XZ=     8.2064   YZ=    -5.3750   ZZ=   201.4560
   Eigenvalues:   196.7721   213.6358   227.9163
     21  C    Isotropic =   207.6955   Anisotropy =    15.6456
   XX=   216.3505   YX=    -2.4340   ZX=    -0.1373
   XY=    -7.6032   YY=   203.8939   ZY=    -2.5005
   XZ=    -1.7677   YZ=    -4.5152   ZZ=   202.8421
   Eigenvalues:   198.8384   206.1222   218.1259
     22  C    Isotropic =    98.7380   Anisotropy =   100.0899
   XX=    51.5487   YX=    52.9574   ZX=    62.5645
   XY=    80.2231   YY=   123.2464   ZY=   -40.6764
   XZ=    73.2815   YZ=   -31.8992   ZZ=   121.4190
   Eigenvalues:   -27.8789   158.6283   165.4647
     23  O    Isotropic =  -142.0949   Anisotropy =   891.6655
   XX=  -290.5309   YX=  -220.9866   ZX=   183.5118
   XY=  -189.8160   YY=  -416.7848   ZY=  -270.1160
   XZ=   181.4748   YZ=  -270.0624   ZZ=   281.0311
   Eigenvalues:  -586.5612  -292.0722   452.3488
     24  O    Isotropic =   284.8907   Anisotropy =   136.9341
   XX=   163.2833   YX=   -26.0971   ZX=    68.0638
   XY=  -149.0192   YY=   337.2325   ZY=    46.1117
   XZ=     8.4985   YZ=    -1.2858   ZZ=   354.1564
   Eigenvalues:   118.6360   359.8561   376.1801
     25  C    Isotropic =   197.4237   Anisotropy =    57.9942
   XX=   230.0913   YX=     0.7890   ZX=   -17.4607
   XY=     0.8439   YY=   177.6011   ZY=    -0.8104
   XZ=   -17.6149   YZ=    -1.3307   ZZ=   184.5788
   Eigenvalues:   177.1839   179.0007   236.0865
     26  C    Isotropic =   210.3488   Anisotropy =    41.9682
   XX=   202.8429   YX=     6.0531   ZX=     8.7058
   XY=     7.9327   YY=   208.3729   ZY=    19.9279
   XZ=     8.7745   YZ=    19.8506   ZZ=   219.8306
   Eigenvalues:   193.3868   199.3319   238.3276
     27  C    Isotropic =   206.5521   Anisotropy =    14.8287
   XX=   216.3761   YX=     0.3187   ZX=     1.5219
   XY=     0.0429   YY=   200.8159   ZY=    -5.4968
   XZ=     0.3185   YZ=    -3.8785   ZZ=   202.4643
   Eigenvalues:   196.8532   206.3653   216.4379
     28  C    Isotropic =   119.3620   Anisotropy =   158.0259
   XX=    89.3573   YX=   -10.9308   ZX=    86.6456
   XY=    -8.6617   YY=    91.7194   ZY=     5.6097
   XZ=    74.0627   YZ=     5.4385   ZZ=   177.0095
   Eigenvalues:    39.2454    94.1281   224.7126
     29  C    Isotropic =   122.1540   Anisotropy =   157.1052
   XX=   117.1137   YX=    36.7880   ZX=    73.4570
   XY=    37.2049   YY=    63.3124   ZY=   -17.2839
   XZ=    59.4882   YZ=    -8.4097   ZZ=   186.0359
   Eigenvalues:    30.9352   108.6359   226.8908
     30  C    Isotropic =   119.1384   Anisotropy =   151.2997
   XX=   133.2749   YX=   -24.7947   ZX=    56.9486
   XY=   -21.7836   YY=    35.9711   ZY=    13.9592
   XZ=    48.0081   YZ=     6.5797   ZZ=   188.1694
   Eigenvalues:    27.3260   110.0844   220.0049
     31  C    Isotropic =   134.3578   Anisotropy =   141.2933
   XX=   134.9516   YX=    32.9329   ZX=    61.0535
   XY=    25.4364   YY=    80.9607   ZY=   -14.2434
   XZ=    63.2799   YZ=   -16.9510   ZZ=   187.1612
   Eigenvalues:    53.7189   120.8012   228.5534
     32  C    Isotropic =   109.7889   Anisotropy =   125.7895
   XX=    88.6317   YX=    -2.3525   ZX=    65.4862
   XY=    -0.0784   YY=    93.1859   ZY=     2.9254
   XZ=    71.9957   YZ=    19.7237   ZZ=   147.5491
   Eigenvalues:    42.2609    93.4573   193.6486
     33  C    Isotropic =   119.8239   Anisotropy =   135.8542
   XX=   139.8639   YX=    -4.4483   ZX=    52.5779
   XY=    -5.8352   YY=    53.3277   ZY=    14.7483
   XZ=    58.7053   YZ=     5.0247   ZZ=   166.2800
   Eigenvalues:    50.9001    98.1782   210.3933
     34  N    Isotropic =   275.5775   Anisotropy =    81.9195
   XX=   300.6201   YX=    27.8809   ZX=   -11.4128
   XY=    46.4923   YY=   273.2844   ZY=    -7.7035
   XZ=   -20.4762   YZ=    -5.0104   ZZ=   252.8279
   Eigenvalues:   244.3324   252.2095   330.1904
     35  C    Isotropic =   195.6871   Anisotropy =    13.5464
   XX=   195.4249   YX=    -8.0187   ZX=    -2.5279
   XY=    -6.4191   YY=   196.5370   ZY=     6.6957
   XZ=    -1.9388   YZ=    -0.4967   ZZ=   195.0993
   Eigenvalues:   188.7003   193.6429   204.7180
     36  C    Isotropic =   181.3959   Anisotropy =    44.4728
   XX=   177.3618   YX=    -1.4282   ZX=   -16.9117
   XY=    -3.5600   YY=   206.9517   ZY=     7.2518
   XZ=    -4.6381   YZ=    18.4660   ZZ=   159.8743
   Eigenvalues:   152.6193   180.5240   211.0445
     37  C    Isotropic =   180.1966   Anisotropy =    47.5331
   XX=   187.2376   YX=   -17.4283   ZX=    19.0314
   XY=   -23.8017   YY=   180.8925   ZY=    -7.2853
   XZ=    11.5429   YZ=    -7.7264   ZZ=   172.4598
   Eigenvalues:   160.2487   168.4559   211.8854
     38  C    Isotropic =   213.8106   Anisotropy =    19.4811
   XX=   210.3787   YX=     0.2245   ZX=     8.5518
   XY=    -1.6461   YY=   210.5535   ZY=     5.8788
   XZ=    11.2919   YZ=    -0.5884   ZZ=   220.4997
   Eigenvalues:   203.7105   210.9234   226.7980
     39  C    Isotropic =   212.4998   Anisotropy =    21.9861
   XX=   210.6414   YX=    -7.8453   ZX=     7.5762
   XY=    -9.6133   YY=   215.5660   ZY=    -6.6573
   XZ=     7.0288   YZ=    -4.4030   ZZ=   211.2921
   Eigenvalues:   202.6937   207.6485   227.1572
     40  C    Isotropic =   211.9923   Anisotropy =     9.6022
   XX=   211.0264   YX=     2.9151   ZX=     0.6375
   XY=     1.9858   YY=   213.8994   ZY=     3.9992
   XZ=     1.6030   YZ=     5.5297   ZZ=   211.0511
   Eigenvalues:   207.3939   210.1892   218.3938
     41  N    Isotropic =   235.0076   Anisotropy =    27.6656
   XX=   250.7436   YX=   -16.4865   ZX=    -9.6783
   XY=     5.2557   YY=   221.9534   ZY=   -12.6051
   XZ=    -4.2677   YZ=    -0.4531   ZZ=   232.3259
   Eigenvalues:   216.8265   234.7450   253.4514
     42  C    Isotropic =   194.8977   Anisotropy =    48.5654
   XX=   182.5871   YX=    -1.6766   ZX=    -5.9620
   XY=     6.8488   YY=   222.7780   ZY=    18.0669
   XZ=    -8.7673   YZ=    11.2917   ZZ=   179.3281
   Eigenvalues:   170.0005   187.4180   227.2747
     43  C    Isotropic =   222.9671   Anisotropy =    11.4921
   XX=   229.7086   YX=    -1.4297   ZX=     2.9038
   XY=    -2.0741   YY=   224.4598   ZY=    -1.0889
   XZ=     1.9872   YZ=     0.0864   ZZ=   214.7328
   Eigenvalues:   214.3387   223.9340   230.6285
     44  C    Isotropic =   215.7602   Anisotropy =    18.7351
   XX=   211.2770   YX=    -2.9238   ZX=     0.8166
   XY=    -7.3887   YY=   224.8920   ZY=     6.4010
   XZ=    -1.8340   YZ=     4.3684   ZZ=   211.1116
   Eigenvalues:   208.3369   210.6934   228.2502
     45  C    Isotropic =   211.0465   Anisotropy =    37.5225
   XX=   205.8266   YX=    -6.8558   ZX=    17.5218
   XY=    -8.1865   YY=   216.6637   ZY=    -7.4053
   XZ=    18.7062   YZ=   -15.5321   ZZ=   210.6492
   Eigenvalues:   189.7992   207.2788   236.0615
     46  C    Isotropic =   191.9266   Anisotropy =    49.9836
   XX=   171.9615   YX=   -10.3626   ZX=     3.1912
   XY=   -18.3870   YY=   181.7967   ZY=    14.3727
   XZ=     8.2737   YZ=     9.0488   ZZ=   222.0218
   Eigenvalues:   159.5390   190.9919   225.2490
     47  C    Isotropic =   212.5300   Anisotropy =    21.5113
   XX=   205.2317   YX=     3.3492   ZX=    -8.5504
   XY=     1.6257   YY=   212.3174   ZY=     7.8208
   XZ=    -9.2860   YZ=     7.6467   ZZ=   220.0410
   Eigenvalues:   198.5662   212.1530   226.8709
     48  C    Isotropic =   209.5228   Anisotropy =     9.2675
   XX=   205.8127   YX=     6.6586   ZX=     0.4549
   XY=     6.4013   YY=   207.2530   ZY=    -4.7473
   XZ=    -1.2874   YZ=     3.5667   ZZ=   215.5026
   Eigenvalues:   199.9629   212.9044   215.7011
     49  C    Isotropic =    96.1113   Anisotropy =    98.6480
   XX=   148.7883   YX=    22.3832   ZX=    34.2575
   XY=    16.5134   YY=   109.0714   ZY=   -91.8270
   XZ=    21.9620   YZ=   -74.1273   ZZ=    30.4743
   Eigenvalues:   -28.6152   155.0726   161.8766
     50  O    Isotropic =  -133.4783   Anisotropy =   887.6336
   XX=   146.7311   YX=   437.5108   ZX=  -144.4612
   XY=   445.9556   YY=  -220.2140   ZY=    22.1457
   XZ=  -167.5810   YZ=    36.1614   ZZ=  -326.9522
   Eigenvalues:  -568.7329  -289.9795   458.2774
     51  O    Isotropic =   283.2292   Anisotropy =   139.0928
   XX=   340.7825   YX=    -7.7898   ZX=  -104.1231
   XY=    20.5296   YY=   362.1977   ZY=   112.1561
   XZ=   -39.6592   YZ=   -21.6900   ZZ=   146.7074
   Eigenvalues:   114.8022   358.9277   375.9577
     52  C    Isotropic =   197.2129   Anisotropy =    57.4479
   XX=   179.4984   YX=     0.9168   ZX=     5.2490
   XY=     1.6164   YY=   178.8354   ZY=     9.9656
   XZ=     4.9344   YZ=     9.6811   ZZ=   233.3051
   Eigenvalues:   177.0484   179.0789   235.5116
     53  C    Isotropic =   209.9563   Anisotropy =    42.1971
   XX=   221.7701   YX=   -21.0875   ZX=    -2.6232
   XY=   -21.7975   YY=   209.3049   ZY=     1.9638
   XZ=    -3.6436   YZ=    -0.5176   ZZ=   198.7937
   Eigenvalues:   192.9093   198.8717   238.0877
     54  O    Isotropic =     2.1107   Anisotropy =   524.2315
   XX=   227.9074   YX=   136.7381   ZX=  -165.9477
   XY=   157.4296   YY=  -148.0468   ZY=   -70.9366
   XZ=  -161.8172   YZ=   -59.0973   ZZ=   -73.5284
   Eigenvalues:  -199.8079  -145.4583   351.5984
     55  H    Isotropic =    25.6376   Anisotropy =    12.0603
   XX=    29.4963   YX=    -4.1112   ZX=     2.7557
   XY=    -4.0957   YY=    26.3100   ZY=    -2.5242
   XZ=     3.9143   YZ=    -2.4396   ZZ=    21.1066
   Eigenvalues:    19.7276    23.5075    33.6779
     56  H    Isotropic =    25.9284   Anisotropy =     6.8785
   XX=    27.0338   YX=     1.7829   ZX=     3.4477
   XY=     0.9048   YY=    28.0277   ZY=     0.6455
   XZ=     4.5543   YZ=     1.2760   ZZ=    22.7238
   Eigenvalues:    20.3319    26.9393    30.5141
     57  H    Isotropic =    26.7498   Anisotropy =     7.5369
   XX=    26.0079   YX=    -1.1679   ZX=     4.2342
   XY=    -1.1502   YY=    31.0966   ZY=    -0.4029
   XZ=     4.3643   YZ=    -0.9755   ZZ=    23.1448
   Eigenvalues:    20.0437    28.4312    31.7744
     58  H    Isotropic =    31.4458   Anisotropy =    13.2837
   XX=    39.3181   YX=     0.5602   ZX=     3.9036
   XY=    -0.9845   YY=    29.5457   ZY=    -0.1414
   XZ=     3.6478   YZ=    -2.0066   ZZ=    25.4736
   Eigenvalues:    24.3233    29.7124    40.3016
     59  H    Isotropic =    32.3710   Anisotropy =    12.7187
   XX=    27.5620   YX=     3.3505   ZX=    -0.7113
   XY=     2.3736   YY=    30.1889   ZY=     3.9793
   XZ=     1.2233   YZ=     3.6302   ZZ=    39.3620
   Eigenvalues:    25.4497    30.8131    40.8501
     60  H    Isotropic =    33.4256   Anisotropy =     8.6795
   XX=    36.3710   YX=    -2.9829   ZX=    -3.4568
   XY=    -4.3270   YY=    34.5096   ZY=    -0.5474
   XZ=     0.7150   YZ=    -2.9043   ZZ=    29.3963
   Eigenvalues:    28.0529    33.0121    39.2119
     61  H    Isotropic =    32.4797   Anisotropy =    13.8410
   XX=    28.1284   YX=     1.7303   ZX=    -2.7885
   XY=     1.6044   YY=    29.4864   ZY=    -3.4636
   XZ=    -2.2323   YZ=    -4.1770   ZZ=    39.8244
   Eigenvalues:    27.0067    28.7254    41.7070
     62  H    Isotropic =    32.6917   Anisotropy =    17.6465
   XX=    44.4216   YX=     1.0220   ZX=    -0.1976
   XY=     0.2060   YY=    27.8035   ZY=     1.1577
   XZ=     1.1167   YZ=    -0.7076   ZZ=    25.8500
   Eigenvalues:    25.8162    27.8028    44.4561
     63  H    Isotropic =    31.8953   Anisotropy =    12.1151
   XX=    36.9599   YX=     1.1681   ZX=     4.9321
   XY=     1.9307   YY=    28.6926   ZY=     1.6494
   XZ=     5.0458   YZ=     1.5999   ZZ=    30.0334
   Eigenvalues:    27.0253    28.6885    39.9720
     64  H    Isotropic =    31.6875   Anisotropy =    14.9647
   XX=    27.2561   YX=    -1.5027   ZX=    -4.1463
   XY=    -2.3922   YY=    33.9483   ZY=     6.4672
   XZ=    -4.0415   YZ=     6.4979   ZZ=    33.8579
   Eigenvalues:    25.0688    28.3297    41.6639
     65  H    Isotropic =    32.3355   Anisotropy =    15.9077
   XX=    29.8062   YX=     5.8724   ZX=     0.2273
   XY=     5.1547   YY=    40.3917   ZY=     1.8620
   XZ=     0.3343   YZ=     1.7916   ZZ=    26.8088
   Eigenvalues:    26.4116    27.6543    42.9406
     66  H    Isotropic =    31.8181   Anisotropy =    13.7914
   XX=    34.5374   YX=    -6.1838   ZX=     1.7175
   XY=    -6.6665   YY=    34.2452   ZY=    -0.4957
   XZ=     1.9390   YZ=    -0.5283   ZZ=    26.6716
   Eigenvalues:    26.0496    28.3923    41.0123
     67  H    Isotropic =    32.2040   Anisotropy =    15.8123
   XX=    42.4510   YX=     2.1200   ZX=    -0.8845
   XY=     1.7852   YY=    29.2007   ZY=     1.1552
   XZ=    -0.3004   YZ=     0.3694   ZZ=    24.9604
   Eigenvalues:    24.7777    29.0888    42.7456
     68  H    Isotropic =    32.3275   Anisotropy =    13.8919
   XX=    26.8802   YX=     1.0139   ZX=     0.2593
   XY=     0.9164   YY=    34.7534   ZY=    -6.3354
   XZ=     0.4055   YZ=    -6.7014   ZZ=    35.3488
   Eigenvalues:    26.4532    28.9405    41.5887
     69  H    Isotropic =    32.0335   Anisotropy =    14.3585
   XX=    41.1559   YX=    -1.3533   ZX=     2.0905
   XY=    -1.4071   YY=    24.9641   ZY=    -0.8689
   XZ=     1.9316   YZ=     1.7684   ZZ=    29.9805
   Eigenvalues:    24.7706    29.7240    41.6058
     70  H    Isotropic =    32.8420   Anisotropy =    11.5448
   XX=    30.4085   YX=     0.6507   ZX=    -4.3046
   XY=     2.8299   YY=    34.8624   ZY=    -5.7391
   XZ=    -5.1363   YZ=    -3.0958   ZZ=    33.2552
   Eigenvalues:    26.6517    31.3358    40.5385
     71  H    Isotropic =    32.0359   Anisotropy =    10.8111
   XX=    30.5887   YX=    -1.8731   ZX=     3.9781
   XY=    -1.6510   YY=    28.7292   ZY=    -1.9823
   XZ=     4.4794   YZ=    -0.2621   ZZ=    36.7897
   Eigenvalues:    27.3830    29.4813    39.2433
     72  H    Isotropic =    31.7982   Anisotropy =    15.8971
   XX=    32.2244   YX=    -2.6475   ZX=    -6.8587
   XY=    -1.3264   YY=    28.1261   ZY=     3.3154
   XZ=    -7.6471   YZ=     4.8546   ZZ=    35.0443
   Eigenvalues:    25.4493    27.5492    42.3963
     73  H    Isotropic =    32.0654   Anisotropy =    14.7639
   XX=    28.9468   YX=    -0.4326   ZX=     4.5276
   XY=    -0.5040   YY=    31.7319   ZY=    -6.4492
   XZ=     4.4055   YZ=    -7.2688   ZZ=    35.5174
   Eigenvalues:    24.8130    29.4752    41.9080
     74  H    Isotropic =    30.1972   Anisotropy =    10.1732
   XX=    34.7847   YX=    -3.3480   ZX=    -0.3966
   XY=    -3.3411   YY=    30.8926   ZY=     3.2447
   XZ=    -0.0418   YZ=     2.9928   ZZ=    24.9145
   Eigenvalues:    23.4624    30.1499    36.9794
     75  H    Isotropic =    31.1846   Anisotropy =    12.4299
   XX=    28.8494   YX=     1.0041   ZX=     5.2677
   XY=     1.1130   YY=    27.7802   ZY=     1.2027
   XZ=     4.2769   YZ=     2.1665   ZZ=    36.9242
   Eigenvalues:    26.5659    27.5167    39.4712
     76  H    Isotropic =    30.5015   Anisotropy =    11.6281
   XX=    32.2722   YX=    -4.7572   ZX=    -2.6068
   XY=    -3.8068   YY=    31.7903   ZY=     3.7131
   XZ=    -2.4682   YZ=     4.1565   ZZ=    27.4420
   Eigenvalues:    25.1206    28.1303    38.2536
     77  H    Isotropic =    30.5426   Anisotropy =     8.2853
   XX=    32.3111   YX=     0.7730   ZX=    -2.7359
   XY=     1.4304   YY=    28.8918   ZY=    -4.3616
   XZ=    -3.2635   YZ=    -3.3083   ZZ=    30.4250
   Eigenvalues:    25.5516    30.0102    36.0662
     78  H    Isotropic =    30.5271   Anisotropy =    12.4190
   XX=    36.7431   YX=    -0.5917   ZX=     4.3459
   XY=     0.1645   YY=    25.8933   ZY=     1.0151
   XZ=     4.6725   YZ=     0.5372   ZZ=    28.9450
   Eigenvalues:    25.4510    27.3239    38.8065
     79  H    Isotropic =    32.0724   Anisotropy =    10.5346
   XX=    30.7334   YX=    -0.8841   ZX=    -3.7420
   XY=    -1.1532   YY=    31.6805   ZY=     5.2633
   XZ=    -1.5576   YZ=     5.4861   ZZ=    33.8035
   Eigenvalues:    27.0034    30.1184    39.0955
     80  H    Isotropic =    30.8682   Anisotropy =    15.3810
   XX=    29.3385   YX=     6.1512   ZX=     2.0689
   XY=     6.1431   YY=    37.5164   ZY=     1.2289
   XZ=     2.9125   YZ=     1.0400   ZZ=    25.7496
   Eigenvalues:    24.0711    27.4113    41.1222
     81  H    Isotropic =    31.0091   Anisotropy =    12.0123
   XX=    31.2539   YX=    -0.0298   ZX=     7.0441
   XY=     0.0383   YY=    30.2997   ZY=     1.6198
   XZ=     7.9886   YZ=     1.4200   ZZ=    31.4738
   Eigenvalues:    23.6739    30.3362    39.0173
     82  H    Isotropic =    29.9905   Anisotropy =     7.9213
   XX=    26.2947   YX=    -0.3680   ZX=    -0.0853
   XY=    -0.7668   YY=    29.4601   ZY=     1.9166
   XZ=    -0.8315   YZ=     2.9064   ZZ=    34.2168
   Eigenvalues:    26.1958    28.5044    35.2714
     83  H    Isotropic =    29.9575   Anisotropy =    12.5395
   XX=    27.3296   YX=    -0.1342   ZX=     0.0496
   XY=    -0.5108   YY=    36.0982   ZY=    -4.6039
   XZ=     0.4332   YZ=    -5.6232   ZZ=    26.4447
   Eigenvalues:    24.2368    27.3185    38.3172
     84  H    Isotropic =    24.7516   Anisotropy =    14.1138
   XX=    29.1005   YX=     5.1361   ZX=    -2.6855
   XY=     4.0984   YY=    26.5221   ZY=    -3.1177
   XZ=    -4.4255   YZ=    -3.7560   ZZ=    18.6322
   Eigenvalues:    17.0269    23.0671    34.1608
     85  H    Isotropic =    25.7068   Anisotropy =     6.5720
   XX=    28.0560   YX=    -2.0395   ZX=    -2.6622
   XY=    -1.1085   YY=    27.5030   ZY=    -0.1579
   XZ=    -3.4474   YZ=     0.0628   ZZ=    21.5616
   Eigenvalues:    20.2947    26.7377    30.0882
     86  H    Isotropic =    26.6759   Anisotropy =     7.9764
   XX=    27.2688   YX=     1.5600   ZX=    -3.2962
   XY=     1.4206   YY=    31.1108   ZY=    -0.5534
   XZ=    -3.9830   YZ=    -0.6789   ZZ=    21.6482
   Eigenvalues:    19.8592    28.1750    31.9935
     87  H    Isotropic =    30.6725   Anisotropy =     6.4125
   XX=    30.4487   YX=     0.7704   ZX=    -1.0665
   XY=     0.9090   YY=    28.3952   ZY=    -2.3888
   XZ=    -3.6108   YZ=    -0.5173   ZZ=    33.1736
   Eigenvalues:    27.9654    29.1046    34.9475
     88  H    Isotropic =    32.1319   Anisotropy =    14.1878
   XX=    38.4099   YX=    -5.2426   ZX=     2.9979
   XY=    -5.2264   YY=    31.0995   ZY=     1.3613
   XZ=     4.4474   YZ=     2.0805   ZZ=    26.8862
   Eigenvalues:    24.0680    30.7372    41.5904
     89  H    Isotropic =    32.7784   Anisotropy =     8.8322
   XX=    29.4415   YX=     3.1329   ZX=     0.2886
   XY=     1.5403   YY=    33.9068   ZY=    -5.0796
   XZ=     2.8197   YZ=    -3.2562   ZZ=    34.9868
   Eigenvalues:    27.0260    32.6427    38.6665
     90  H    Isotropic =    32.4244   Anisotropy =    13.3489
   XX=    27.3637   YX=    -0.3149   ZX=     1.0432
   XY=    -0.9425   YY=    28.7093   ZY=     0.0714
   XZ=     1.2633   YZ=     1.2234   ZZ=    41.2002
   Eigenvalues:    26.9947    28.9549    41.3237
     91  H    Isotropic =    32.2467   Anisotropy =    15.6470
   XX=    39.6563   YX=     3.1199   ZX=     5.5952
   XY=     2.7382   YY=    29.4818   ZY=     1.8039
   XZ=     5.4443   YZ=     1.8770   ZZ=    27.6018
   Eigenvalues:    25.3321    28.7298    42.6780
     92  H    Isotropic =    30.6945   Anisotropy =    11.7344
   XX=    31.5994   YX=     0.0237   ZX=    -4.5479
   XY=    -1.9147   YY=    28.5391   ZY=     5.5139
   XZ=    -5.2748   YZ=     4.1693   ZZ=    31.9451
   Eigenvalues:    24.3189    29.2472    38.5175
     93  H    Isotropic =    30.8295   Anisotropy =    13.0705
   XX=    35.3359   YX=    -3.3854   ZX=     3.7201
   XY=    -5.1811   YY=    33.0186   ZY=    -0.6916
   XZ=     4.2086   YZ=    -1.2885   ZZ=    24.1339
   Eigenvalues:    22.8585    30.0867    39.5431
     94  H    Isotropic =    32.2714   Anisotropy =    17.8667
   XX=    28.0441   YX=    -0.2838   ZX=     0.7686
   XY=    -0.1840   YY=    43.0957   ZY=     4.4225
   XZ=     0.7379   YZ=     4.5464   ZZ=    25.6742
   Eigenvalues:    24.4168    28.2147    44.1825
     95  H    Isotropic =    32.5251   Anisotropy =     9.6638
   XX=    28.9708   YX=     0.9978   ZX=    -2.5785
   XY=     0.5506   YY=    33.2788   ZY=    -3.6122
   XZ=    -2.6231   YZ=    -4.1559   ZZ=    35.3258
   Eigenvalues:    27.9465    30.6611    38.9677
     96  H    Isotropic =    32.4536   Anisotropy =    13.0178
   XX=    27.6266   YX=    -0.7127   ZX=     0.4728
   XY=    -1.0420   YY=    30.1247   ZY=     4.0885
   XZ=     0.3379   YZ=     4.0982   ZZ=    39.6095
   Eigenvalues:    27.0341    29.1945    41.1321
     97  H    Isotropic =    32.3927   Anisotropy =    15.2641
   XX=    37.0852   YX=     6.2326   ZX=     2.6102
   XY=     5.8366   YY=    34.3147   ZY=     2.7731
   XZ=     1.8873   YZ=     2.3958   ZZ=    25.7781
   Eigenvalues:    25.0195    29.5897    42.5688
     98  H    Isotropic =    32.1471   Anisotropy =    14.8169
   XX=    39.9997   YX=     3.1145   ZX=     3.5133
   XY=     5.3454   YY=    30.8279   ZY=    -0.0940
   XZ=     2.9861   YZ=    -3.1934   ZZ=    25.6136
   Eigenvalues:    23.8885    30.5277    42.0250
     99  H    Isotropic =    33.0411   Anisotropy =    10.3925
   XX=    33.4966   YX=    -2.4724   ZX=    -2.2670
   XY=    -0.8269   YY=    27.2956   ZY=     2.7150
   XZ=    -2.5129   YZ=     2.1535   ZZ=    38.3312
   Eigenvalues:    26.5838    32.5701    39.9695
    100  H    Isotropic =    31.4981   Anisotropy =     7.4215
   XX=    31.1620   YX=     1.2361   ZX=    -1.6687
   XY=     1.7531   YY=    30.2352   ZY=    -2.9156
   XZ=    -1.6570   YZ=    -4.2313   ZZ=    33.0970
   Eigenvalues:    27.7827    30.2657    36.4457
    101  H    Isotropic =    31.1016   Anisotropy =    16.0889
   XX=    38.1937   YX=    -3.1283   ZX=     4.6175
   XY=    -3.0128   YY=    26.8280   ZY=    -1.4348
   XZ=     7.2805   YZ=    -2.2532   ZZ=    28.2830
   Eigenvalues:    25.3065    26.1707    41.8275
    102  H    Isotropic =    31.6281   Anisotropy =     8.8356
   XX=    28.8391   YX=    -2.2215   ZX=     0.1974
   XY=    -2.9522   YY=    32.8507   ZY=    -3.3875
   XZ=    -0.3025   YZ=    -4.8533   ZZ=    33.1946
   Eigenvalues:    26.8087    30.5571    37.5186
    103  H    Isotropic =    32.1777   Anisotropy =    15.0912
   XX=    37.8743   YX=     6.6916   ZX=    -2.1409
   XY=     6.2031   YY=    32.2642   ZY=     1.4056
   XZ=    -2.8279   YZ=     0.8415   ZZ=    26.3947
   Eigenvalues:    24.6898    29.6049    42.2385
    104  H    Isotropic =    31.1602   Anisotropy =    13.1093
   XX=    38.9389   YX=    -2.7522   ZX=    -2.3337
   XY=    -1.3070   YY=    27.5862   ZY=     2.1314
   XZ=    -2.7374   YZ=     1.3250   ZZ=    26.9555
   Eigenvalues:    25.4747    28.1062    39.8997
    105  H    Isotropic =    30.7003   Anisotropy =     7.3915
   XX=    33.3822   YX=     1.5113   ZX=     2.6246
   XY=     0.8291   YY=    26.1696   ZY=     2.0831
   XZ=     1.5904   YZ=     1.9637   ZZ=    32.5490
   Eigenvalues:    25.5416    30.9313    35.6279
    106  H    Isotropic =    30.5917   Anisotropy =    11.6335
   XX=    27.6604   YX=     1.4394   ZX=    -3.9760
   XY=     2.1646   YY=    29.4279   ZY=    -3.6448
   XZ=    -4.4307   YZ=    -3.2550   ZZ=    34.6867
   Eigenvalues:    25.6830    27.7447    38.3473
    107  H    Isotropic =    30.5357   Anisotropy =    12.2263
   XX=    27.6194   YX=    -3.6930   ZX=    -2.7752
   XY=    -3.8581   YY=    32.2425   ZY=     4.1761
   XZ=    -3.6194   YZ=     4.7829   ZZ=    31.7452
   Eigenvalues:    25.3851    27.5355    38.6866
    108  H    Isotropic =    30.9665   Anisotropy =    10.9930
   XX=    35.8660   YX=    -1.1676   ZX=    -5.6731
   XY=    -1.7245   YY=    30.3582   ZY=    -0.8046
   XZ=    -4.6592   YZ=    -1.1138   ZZ=    26.6752
   Eigenvalues:    24.0137    30.5905    38.2951
    109  H    Isotropic =    30.7197   Anisotropy =    14.4470
   XX=    27.5674   YX=    -2.3011   ZX=    -2.9570
   XY=    -2.3113   YY=    37.0034   ZY=     5.5453
   XZ=    -2.3377   YZ=     5.4675   ZZ=    27.5882
   Eigenvalues:    24.2641    27.5439    40.3510
    110  H    Isotropic =    31.9115   Anisotropy =    12.1975
   XX=    31.9676   YX=    -5.0190   ZX=     2.6555
   XY=    -4.9276   YY=    32.5863   ZY=    -3.3886
   XZ=     4.5279   YZ=    -3.4877   ZZ=    31.1806
   Eigenvalues:    27.2470    28.4443    40.0431
 End of Minotr F.D. properties file   721 does not exist.
 End of Minotr F.D. properties file   722 does not exist.
 End of Minotr F.D. properties file   788 does not exist.
 Hyperfine terms turned off by default for NAtoms > 100.

 **********************************************************************

            Population analysis using the SCF Density.

 **********************************************************************

 Orbital symmetries:
       Occupied  (A) (A) (A) (A) (A) (A) (A) (A) (A) (A) (A) (A)
                 (A) (A) (A) (A) (A) (A) (A) (A) (A) (A) (A) (A)
                 (A) (A) (A) (A) (A) (A) (A) (A) (A) (A) (A) (A)
                 (A) (A) (A) (A) (A) (A) (A) (A) (A) (A) (A) (A)
                 (A) (A) (A) (A) (A) (A) (A) (A) (A) (A) (A) (A)
                 (A) (A) (A) (A) (A) (A) (A) (A) (A) (A) (A) (A)
                 (A) (A) (A) (A) (A) (A) (A) (A) (A) (A) (A) (A)
                 (A) (A) (A) (A) (A) (A) (A) (A) (A) (A) (A) (A)
                 (A) (A) (A) (A) (A) (A) (A) (A) (A) (A) (A) (A)
                 (A) (A) (A) (A) (A) (A) (A) (A) (A) (A) (A) (A)
                 (A) (A) (A) (A) (A) (A) (A) (A) (A) (A) (A) (A)
                 (A) (A) (A) (A) (A) (A) (A) (A) (A) (A) (A) (A)
                 (A) (A) (A) (A) (A) (A) (A) (A) (A) (A) (A) (A)
                 (A) (A) (A) (A) (A) (A) (A) (A) (A) (A) (A) (A)
                 (A) (A) (A) (A) (A) (A) (A) (A) (A) (A) (A) (A)
                 (A) (A) (A) (A) (A) (A) (A) (A) (A) (A) (A) (A)
                 (A) (A) (A) (A) (A)
       Virtual   (A) (A) (A) (A) (A) (A) (A) (A) (A) (A) (A) (A)
                 (A) (A) (A) (A) (A) (A) (A) (A) (A) (A) (A) (A)
                 (A) (A) (A) (A) (A) (A) (A) (A) (A) (A) (A) (A)
                 (A) (A) (A) (A) (A) (A) (A) (A) (A) (A) (A) (A)
                 (A) (A) (A) (A) (A) (A) (A) (A) (A) (A) (A) (A)
                 (A) (A) (A) (A) (A) (A) (A) (A) (A) (A) (A) (A)
                 (A) (A) (A) (A) (A) (A) (A) (A) (A) (A) (A) (A)
                 (A) (A) (A) (A) (A) (A) (A) (A) (A) (A) (A) (A)
                 (A) (A) (A) (A) (A) (A) (A) (A) (A) (A) (A) (A)
                 (A) (A) (A) (A) (A) (A) (A) (A) (A) (A) (A) (A)
                 (A) (A) (A) (A) (A) (A) (A) (A) (A)
 The electronic state is 1-A.
 Alpha  occ. eigenvalues --  -20.31438 -20.29343 -20.25317 -20.22782 -19.92306
 Alpha  occ. eigenvalues --  -15.48227 -15.33911 -15.32204 -15.28763 -11.17363
 Alpha  occ. eigenvalues --  -11.14941 -11.11112 -11.10337 -11.09714 -11.09549
 Alpha  occ. eigenvalues --  -11.09452 -11.09119 -11.08300 -11.07963 -11.07549
 Alpha  occ. eigenvalues --  -11.07352 -11.07138 -11.06685 -11.06484 -11.06056
 Alpha  occ. eigenvalues --  -11.05821 -11.05490 -11.05306 -11.05278 -11.05272
 Alpha  occ. eigenvalues --  -11.05257 -11.05003 -11.04796 -11.04760 -11.04400
 Alpha  occ. eigenvalues --  -11.04076 -11.03751 -11.03580 -11.02587 -11.02579
 Alpha  occ. eigenvalues --  -11.02549 -11.02540 -11.02387 -11.02344 -11.01517
 Alpha  occ. eigenvalues --  -11.01454 -11.01319 -11.01054 -11.01038 -11.00944
 Alpha  occ. eigenvalues --  -11.00629 -11.00570 -11.00298 -11.00205  -1.38616
 Alpha  occ. eigenvalues --   -1.36508  -1.28644  -1.28435  -1.25913  -1.21413
 Alpha  occ. eigenvalues --   -1.20211  -1.17844  -1.12194  -1.08441  -1.07762
 Alpha  occ. eigenvalues --   -1.06890  -1.06267  -1.03748  -1.03311  -1.00883
 Alpha  occ. eigenvalues --   -0.99552  -0.98740  -0.97713  -0.96988  -0.96594
 Alpha  occ. eigenvalues --   -0.95152  -0.95026  -0.93255  -0.92856  -0.92418
 Alpha  occ. eigenvalues --   -0.92000  -0.90753  -0.89782  -0.89219  -0.87676
 Alpha  occ. eigenvalues --   -0.85979  -0.84165  -0.83184  -0.82212  -0.80916
 Alpha  occ. eigenvalues --   -0.80395  -0.79161  -0.78460  -0.77924  -0.75725
 Alpha  occ. eigenvalues --   -0.75657  -0.74664  -0.72783  -0.72602  -0.71859
 Alpha  occ. eigenvalues --   -0.71138  -0.70585  -0.69163  -0.68492  -0.67167
 Alpha  occ. eigenvalues --   -0.66061  -0.64258  -0.63561  -0.63271  -0.63008
 Alpha  occ. eigenvalues --   -0.62158  -0.62136  -0.61886  -0.61324  -0.61115
 Alpha  occ. eigenvalues --   -0.60010  -0.59904  -0.59251  -0.58852  -0.58613
 Alpha  occ. eigenvalues --   -0.58413  -0.57865  -0.57584  -0.56911  -0.56562
 Alpha  occ. eigenvalues --   -0.56324  -0.56006  -0.55943  -0.55516  -0.55412
 Alpha  occ. eigenvalues --   -0.55267  -0.54872  -0.54652  -0.54046  -0.53584
 Alpha  occ. eigenvalues --   -0.53086  -0.52762  -0.52537  -0.52235  -0.52179
 Alpha  occ. eigenvalues --   -0.52060  -0.51138  -0.50798  -0.50210  -0.50111
 Alpha  occ. eigenvalues --   -0.49763  -0.49297  -0.49154  -0.48799  -0.48516
 Alpha  occ. eigenvalues --   -0.48296  -0.48040  -0.47626  -0.47100  -0.46897
 Alpha  occ. eigenvalues --   -0.46395  -0.46132  -0.45605  -0.45444  -0.45359
 Alpha  occ. eigenvalues --   -0.45191  -0.44730  -0.44414  -0.43828  -0.43582
 Alpha  occ. eigenvalues --   -0.43336  -0.42806  -0.42519  -0.42358  -0.41873
 Alpha  occ. eigenvalues --   -0.41439  -0.41242  -0.41049  -0.40646  -0.40218
 Alpha  occ. eigenvalues --   -0.39889  -0.39659  -0.39040  -0.38733  -0.37828
 Alpha  occ. eigenvalues --   -0.36686  -0.35940  -0.35855  -0.34790  -0.34398
 Alpha  occ. eigenvalues --   -0.33985  -0.32476  -0.32313  -0.31703  -0.30381
 Alpha  occ. eigenvalues --   -0.26548  -0.26151  -0.25683  -0.21058  -0.19399
 Alpha  occ. eigenvalues --   -0.16231  -0.16051
 Alpha virt. eigenvalues --    0.27189   0.27740   0.28602   0.29626   0.30202
 Alpha virt. eigenvalues --    0.32155   0.46401   0.47049   0.48797   0.49708
 Alpha virt. eigenvalues --    0.50037   0.50421   0.50811   0.52162   0.52527
 Alpha virt. eigenvalues --    0.53614   0.54086   0.55448   0.55886   0.56464
 Alpha virt. eigenvalues --    0.57186   0.57805   0.58067   0.58357   0.58719
 Alpha virt. eigenvalues --    0.59201   0.59689   0.60264   0.60763   0.61353
 Alpha virt. eigenvalues --    0.61789   0.61874   0.62340   0.63252   0.63327
 Alpha virt. eigenvalues --    0.63637   0.63806   0.64088   0.64336   0.64423
 Alpha virt. eigenvalues --    0.64760   0.65096   0.65381   0.65555   0.66104
 Alpha virt. eigenvalues --    0.66327   0.66700   0.66819   0.67174   0.67485
 Alpha virt. eigenvalues --    0.67955   0.68451   0.68783   0.68872   0.69014
 Alpha virt. eigenvalues --    0.69408   0.69426   0.69693   0.69800   0.70094
 Alpha virt. eigenvalues --    0.70632   0.70706   0.70886   0.71462   0.71534
 Alpha virt. eigenvalues --    0.71721   0.72112   0.72520   0.72749   0.73074
 Alpha virt. eigenvalues --    0.73192   0.73631   0.73836   0.73934   0.74121
 Alpha virt. eigenvalues --    0.74333   0.74927   0.74994   0.75235   0.75549
 Alpha virt. eigenvalues --    0.75615   0.76057   0.76300   0.76413   0.76939
 Alpha virt. eigenvalues --    0.77084   0.77433   0.77561   0.77688   0.77874
 Alpha virt. eigenvalues --    0.78016   0.78437   0.78896   0.79115   0.79374
 Alpha virt. eigenvalues --    0.79791   0.79888   0.80352   0.80956   0.81099
 Alpha virt. eigenvalues --    0.81344   0.81753   0.82043   0.82233   0.82603
 Alpha virt. eigenvalues --    0.83090   0.83585   0.83953   0.84580   0.84740
 Alpha virt. eigenvalues --    0.86498   0.86571   0.87224   0.87517   0.88657
 Alpha virt. eigenvalues --    0.88906   0.90598   0.91476   0.92532   0.94675
 Alpha virt. eigenvalues --    0.95605   0.96518   0.99084   1.00625   1.01870
 Alpha virt. eigenvalues --    1.11472   1.12441   1.16434   1.17454
          Condensed to atoms (all electrons):
 Mulliken charges:
               1
     1  C   -0.075026
     2  C    0.000001
     3  C   -0.063317
     4  C   -0.091333
     5  C    0.091256
     6  C   -0.012167
     7  N   -0.284631
     8  C    0.015536
     9  C    0.130457
    10  C    0.034196
    11  C   -0.114415
    12  C   -0.107955
    13  C    0.042632
    14  N   -0.291443
    15  C   -0.014981
    16  C   -0.093991
    17  C   -0.100146
    18  C   -0.097155
    19  C   -0.015032
    20  C   -0.104244
    21  C   -0.063964
    22  C    0.315646
    23  O   -0.274798
    24  O   -0.257919
    25  C   -0.055692
    26  C   -0.078471
    27  C   -0.108940
    28  C    0.000397
    29  C   -0.073152
    30  C   -0.060811
    31  C   -0.091514
    32  C    0.087832
    33  C   -0.015628
    34  N   -0.287826
    35  C    0.020764
    36  C    0.128853
    37  C    0.040619
    38  C   -0.115649
    39  C   -0.104821
    40  C    0.028229
    41  N   -0.086002
    42  C   -0.007720
    43  C   -0.110717
    44  C   -0.102246
    45  C   -0.106550
    46  C   -0.012676
    47  C   -0.111668
    48  C   -0.067114
    49  C    0.320540
    50  O   -0.279060
    51  O   -0.253917
    52  C   -0.055712
    53  C   -0.078723
    54  O   -0.456483
    55  H    0.064986
    56  H    0.053413
    57  H    0.057308
    58  H    0.064909
    59  H    0.046602
    60  H    0.054510
    61  H    0.044733
    62  H    0.051830
    63  H    0.051561
    64  H    0.055129
    65  H    0.046270
    66  H    0.051865
    67  H    0.051252
    68  H    0.046409
    69  H    0.060181
    70  H    0.057059
    71  H    0.042626
    72  H    0.057318
    73  H    0.045235
    74  H    0.081619
    75  H    0.060866
    76  H    0.075760
    77  H    0.073913
    78  H    0.071699
    79  H    0.052702
    80  H    0.072436
    81  H    0.076246
    82  H    0.058471
    83  H    0.055494
    84  H    0.088471
    85  H    0.056167
    86  H    0.056922
    87  H    0.086057
    88  H    0.053081
    89  H    0.058552
    90  H    0.054166
    91  H    0.051801
    92  H    0.088576
    93  H    0.080163
    94  H    0.066160
    95  H    0.057645
    96  H    0.056842
    97  H    0.057750
    98  H    0.082276
    99  H    0.071929
   100  H    0.068863
   101  H    0.087496
   102  H    0.065926
   103  H    0.055252
   104  H    0.067259
   105  H    0.075803
   106  H    0.073118
   107  H    0.079143
   108  H    0.075041
   109  H    0.073615
   110  H    0.056175
 Sum of Mulliken charges =  -0.00000
 Mulliken charges with hydrogens summed into heavy atoms:
               1
     1  C   -0.010040
     2  C    0.000001
     3  C   -0.009904
     4  C   -0.034026
     5  C    0.091256
     6  C   -0.012167
     7  N   -0.284631
     8  C    0.015536
     9  C    0.130457
    10  C    0.099106
    11  C   -0.013303
    12  C   -0.011392
    13  C    0.042632
    14  N   -0.291443
    15  C    0.091709
    16  C    0.004143
    17  C   -0.002485
    18  C    0.020085
    19  C    0.084913
    20  C    0.022610
    21  C   -0.003098
    22  C    0.315646
    23  O   -0.274798
    24  O   -0.257919
    25  C    0.165681
    26  C    0.122912
    27  C    0.005025
    28  C    0.000397
    29  C    0.015320
    30  C   -0.004645
    31  C   -0.034592
    32  C    0.087832
    33  C   -0.015628
    34  N   -0.287826
    35  C    0.020764
    36  C    0.128853
    37  C    0.126676
    38  C   -0.004015
    39  C    0.001146
    40  C    0.028229
    41  N   -0.086002
    42  C    0.161019
    43  C    0.013088
    44  C    0.012346
    45  C    0.047655
    46  C    0.143682
    47  C    0.009509
    48  C    0.000145
    49  C    0.320540
    50  O   -0.279060
    51  O   -0.253917
    52  C    0.172352
    53  C    0.126109
    54  O   -0.456483
 Electronic spatial extent (au):  <R**2>=          36415.7402
 Charge=             -0.0000 electrons
 Dipole moment (field-independent basis, Debye):
    X=             -6.5733    Y=             -2.2993    Z=              0.8425  Tot=              7.0146
 Quadrupole moment (field-independent basis, Debye-Ang):
   XX=           -281.4110   YY=           -294.2882   ZZ=           -293.4496
   XY=             -2.6481   XZ=              0.8897   YZ=              4.8615
 Traceless Quadrupole moment (field-independent basis, Debye-Ang):
   XX=              8.3052   YY=             -4.5719   ZZ=             -3.7333
   XY=             -2.6481   XZ=              0.8897   YZ=              4.8615
 Octapole moment (field-independent basis, Debye-Ang**2):
  XXX=           -178.9143  YYY=            -26.0164  ZZZ=             58.9920  XYY=            -46.9269
  XXY=            -91.6307  XXZ=             -4.2236  XZZ=              0.1850  YZZ=              4.5932
  YYZ=              5.2823  XYZ=            -22.0435
 Hexadecapole moment (field-independent basis, Debye-Ang**3):
 XXXX=         -30517.6528 YYYY=          -9106.8751 ZZZZ=          -4500.7823 XXXY=           -612.5254
 XXXZ=           -434.8000 YYYX=             55.1327 YYYZ=             95.2465 ZZZX=           -221.6294
 ZZZY=            132.1264 XXYY=          -6836.3266 XXZZ=          -5804.1447 YYZZ=          -2344.5342
 XXYZ=             88.8200 YYXZ=             11.9884 ZZXY=            -83.1339
 N-N= 8.200523408186D+03 E-N=-2.177875203353D+04  KE= 2.279169481356D+03
 ******************************Gaussian NBO Version 3.1******************************
             N A T U R A L   A T O M I C   O R B I T A L   A N D
          N A T U R A L   B O N D   O R B I T A L   A N A L Y S I S
 ******************************Gaussian NBO Version 3.1******************************
       /RESON  / : Allow strongly delocalized NBO set
       /NLMO   / : Form Natural Localized Molecular Orbitals
       /NMR /    : Analyze NMR Sheilding Tensor 

 Analyzing the SCF density

 Job title: pleiokomenine_C_1a                                              

 Storage needed:    355564 in NPA,    438187 in NBO,   2133784 in NLMO ( 104796000 available)
 GSVD:  LWork=     -108884 too small for GESVD, short by      536270 words or      536270 for optimal perf.


 NATURAL POPULATIONS:  Natural atomic orbital occupancies 
                                                          
   NAO  Atom  No  lang   Type(AO)    Occupancy      Energy
 ----------------------------------------------------------
     1    C    1  S      Cor( 1S)     1.99992     -10.93035
     2    C    1  S      Val( 2S)     1.07868      -0.16128
     3    C    1  px     Val( 2p)     0.99775       0.10974
     4    C    1  py     Val( 2p)     0.98173       0.16657
     5    C    1  pz     Val( 2p)     0.99972       0.08779
 
     6    C    2  S      Cor( 1S)     1.99990     -10.94225
     7    C    2  S      Val( 2S)     1.07721      -0.16933
     8    C    2  px     Val( 2p)     0.95677       0.13257
     9    C    2  py     Val( 2p)     0.96264       0.18459
    10    C    2  pz     Val( 2p)     0.99001       0.09034
 
    11    C    3  S      Cor( 1S)     1.99994     -10.93454
    12    C    3  S      Val( 2S)     1.08315      -0.16914
    13    C    3  px     Val( 2p)     0.98519       0.11665
    14    C    3  py     Val( 2p)     0.97602       0.16622
    15    C    3  pz     Val( 2p)     0.99064       0.08887
 
    16    C    4  S      Cor( 1S)     1.99993     -10.92753
    17    C    4  S      Val( 2S)     1.07149      -0.15986
    18    C    4  px     Val( 2p)     1.01230       0.10414
    19    C    4  py     Val( 2p)     0.97693       0.17044
    20    C    4  pz     Val( 2p)     1.02843       0.07768
 
    21    C    5  S      Cor( 1S)     1.99985     -10.97466
    22    C    5  S      Val( 2S)     1.06041      -0.17171
    23    C    5  px     Val( 2p)     0.90371       0.12220
    24    C    5  py     Val( 2p)     0.97766       0.16832
    25    C    5  pz     Val( 2p)     0.94270       0.09485
 
    26    C    6  S      Cor( 1S)     1.99990     -10.93251
    27    C    6  S      Val( 2S)     1.08383      -0.17411
    28    C    6  px     Val( 2p)     0.98539       0.12868
    29    C    6  py     Val( 2p)     0.95620       0.15692
    30    C    6  pz     Val( 2p)     0.99620       0.10017
 
    31    N    7  S      Cor( 1S)     1.99998     -15.25454
    32    N    7  S      Val( 2S)     1.40248      -0.57871
    33    N    7  px     Val( 2p)     1.55447      -0.15769
    34    N    7  py     Val( 2p)     1.06477       0.03045
    35    N    7  pz     Val( 2p)     1.25193      -0.03816
 
    36    C    8  S      Cor( 1S)     1.99996     -10.98883
    37    C    8  S      Val( 2S)     1.10545      -0.21286
    38    C    8  px     Val( 2p)     0.98167       0.08829
    39    C    8  py     Val( 2p)     0.95707       0.13396
    40    C    8  pz     Val( 2p)     0.94108       0.12114
 
    41    C    9  S      Cor( 1S)     1.99996     -11.03534
    42    C    9  S      Val( 2S)     1.11278      -0.24164
    43    C    9  px     Val( 2p)     0.93027       0.09651
    44    C    9  py     Val( 2p)     0.83083       0.14618
    45    C    9  pz     Val( 2p)     0.95197       0.09851
 
    46    C   10  S      Cor( 1S)     1.99993     -10.99219
    47    C   10  S      Val( 2S)     1.09532      -0.19557
    48    C   10  px     Val( 2p)     0.97191       0.12462
    49    C   10  py     Val( 2p)     0.92504       0.11670
    50    C   10  pz     Val( 2p)     0.94248       0.10586
 
    51    C   11  S      Cor( 1S)     1.99994     -10.96505
    52    C   11  S      Val( 2S)     1.10449      -0.20008
    53    C   11  px     Val( 2p)     0.99120       0.09911
    54    C   11  py     Val( 2p)     0.98823       0.10249
    55    C   11  pz     Val( 2p)     1.00006       0.09640
 
    56    C   12  S      Cor( 1S)     1.99996     -10.96153
    57    C   12  S      Val( 2S)     1.08837      -0.18117
    58    C   12  px     Val( 2p)     1.00529       0.10383
    59    C   12  py     Val( 2p)     0.97896       0.10485
    60    C   12  pz     Val( 2p)     1.00552       0.10321
 
    61    C   13  S      Cor( 1S)     1.99998     -10.98782
    62    C   13  S      Val( 2S)     1.09978      -0.20435
    63    C   13  px     Val( 2p)     0.94092       0.12827
    64    C   13  py     Val( 2p)     0.94726       0.12673
    65    C   13  pz     Val( 2p)     0.94772       0.12607
 
    66    N   14  S      Cor( 1S)     1.99999     -15.21857
    67    N   14  S      Val( 2S)     1.42876      -0.56737
    68    N   14  px     Val( 2p)     1.54849      -0.13545
    69    N   14  py     Val( 2p)     1.09205       0.04805
    70    N   14  pz     Val( 2p)     1.21090      -0.00674
 
    71    C   15  S      Cor( 1S)     1.99994     -10.99213
    72    C   15  S      Val( 2S)     1.07136      -0.17469
    73    C   15  px     Val( 2p)     0.98600       0.11127
    74    C   15  py     Val( 2p)     0.91527       0.11798
    75    C   15  pz     Val( 2p)     0.98814       0.09853
 
    76    C   16  S      Cor( 1S)     1.99996     -10.96514
    77    C   16  S      Val( 2S)     1.08409      -0.17809
    78    C   16  px     Val( 2p)     1.01485       0.10568
    79    C   16  py     Val( 2p)     0.98872       0.10809
    80    C   16  pz     Val( 2p)     0.96885       0.11299
 
    81    C   17  S      Cor( 1S)     1.99995     -10.96523
    82    C   17  S      Val( 2S)     1.09037      -0.18307
    83    C   17  px     Val( 2p)     1.00760       0.10325
    84    C   17  py     Val( 2p)     0.97700       0.10928
    85    C   17  pz     Val( 2p)     0.98919       0.10887
 
    86    C   18  S      Cor( 1S)     1.99994     -10.96406
    87    C   18  S      Val( 2S)     1.09272      -0.18389
    88    C   18  px     Val( 2p)     0.99836       0.10870
    89    C   18  py     Val( 2p)     0.99432       0.10370
    90    C   18  pz     Val( 2p)     0.97814       0.10289
 
    91    C   19  S      Cor( 1S)     1.99995     -10.99151
    92    C   19  S      Val( 2S)     1.07200      -0.17647
    93    C   19  px     Val( 2p)     1.00254       0.09730
    94    C   19  py     Val( 2p)     0.95149       0.09487
    95    C   19  pz     Val( 2p)     0.93563       0.12657
 
    96    C   20  S      Cor( 1S)     1.99992     -10.96737
    97    C   20  S      Val( 2S)     1.10179      -0.19534
    98    C   20  px     Val( 2p)     0.98397       0.10012
    99    C   20  py     Val( 2p)     0.95906       0.11301
   100    C   20  pz     Val( 2p)     1.02159       0.10072
 
   101    C   21  S      Cor( 1S)     1.99994     -10.99600
   102    C   21  S      Val( 2S)     1.11493      -0.22866
   103    C   21  px     Val( 2p)     0.96196       0.09829
   104    C   21  py     Val( 2p)     0.99121       0.08404
   105    C   21  pz     Val( 2p)     1.01081       0.07864
 
   106    C   22  S      Cor( 1S)     1.99991     -11.09690
   107    C   22  S      Val( 2S)     1.05655      -0.24660
   108    C   22  px     Val( 2p)     0.90437       0.10605
   109    C   22  py     Val( 2p)     0.78447       0.18797
   110    C   22  pz     Val( 2p)     0.85707       0.02439
 
   111    O   23  S      Cor( 1S)     1.99999     -20.08112
   112    O   23  S      Val( 2S)     1.80922      -1.04008
   113    O   23  px     Val( 2p)     1.66936      -0.23140
   114    O   23  py     Val( 2p)     1.43502      -0.13578
   115    O   23  pz     Val( 2p)     1.39607      -0.15797
 
   116    O   24  S      Cor( 1S)     1.99999     -20.20261
   117    O   24  S      Val( 2S)     1.72802      -1.01549
   118    O   24  px     Val( 2p)     1.30975      -0.12731
   119    O   24  py     Val( 2p)     1.52872      -0.22653
   120    O   24  pz     Val( 2p)     1.70232      -0.29672
 
   121    C   25  S      Cor( 1S)     1.99984     -11.03582
   122    C   25  S      Val( 2S)     1.07674      -0.21737
   123    C   25  px     Val( 2p)     0.83159       0.09318
   124    C   25  py     Val( 2p)     1.04316       0.04577
   125    C   25  pz     Val( 2p)     1.01371       0.05354
 
   126    C   26  S      Cor( 1S)     1.99992     -11.00246
   127    C   26  S      Val( 2S)     1.06422      -0.18178
   128    C   26  px     Val( 2p)     1.02801       0.07378
   129    C   26  py     Val( 2p)     0.99798       0.07672
   130    C   26  pz     Val( 2p)     0.92634       0.10295
 
   131    C   27  S      Cor( 1S)     1.99996     -10.97252
   132    C   27  S      Val( 2S)     1.08222      -0.17706
   133    C   27  px     Val( 2p)     0.98079       0.10638
   134    C   27  py     Val( 2p)     1.02631       0.09572
   135    C   27  pz     Val( 2p)     0.99611       0.10263
 
   136    C   28  S      Cor( 1S)     1.99990     -10.94786
   137    C   28  S      Val( 2S)     1.07863      -0.17517
   138    C   28  px     Val( 2p)     0.95201       0.13985
   139    C   28  py     Val( 2p)     0.95963       0.18527
   140    C   28  pz     Val( 2p)     0.99566       0.06657
 
   141    C   29  S      Cor( 1S)     1.99993     -10.93529
   142    C   29  S      Val( 2S)     1.08471      -0.16846
   143    C   29  px     Val( 2p)     0.98204       0.12667
   144    C   29  py     Val( 2p)     0.99015       0.16541
   145    C   29  pz     Val( 2p)     0.99567       0.06235
 
   146    C   30  S      Cor( 1S)     1.99994     -10.94234
   147    C   30  S      Val( 2S)     1.08390      -0.17638
   148    C   30  px     Val( 2p)     0.97875       0.12671
   149    C   30  py     Val( 2p)     0.97612       0.16352
   150    C   30  pz     Val( 2p)     0.99283       0.06022
 
   151    C   31  S      Cor( 1S)     1.99993     -10.93606
   152    C   31  S      Val( 2S)     1.07121      -0.16864
   153    C   31  px     Val( 2p)     1.00845       0.11203
   154    C   31  py     Val( 2p)     0.97095       0.16786
   155    C   31  pz     Val( 2p)     1.03885       0.04645
 
   156    C   32  S      Cor( 1S)     1.99986     -10.98488
   157    C   32  S      Val( 2S)     1.05903      -0.18160
   158    C   32  px     Val( 2p)     0.91180       0.12679
   159    C   32  py     Val( 2p)     0.97877       0.16025
   160    C   32  pz     Val( 2p)     0.93930       0.06211
 
   161    C   33  S      Cor( 1S)     1.99990     -10.94271
   162    C   33  S      Val( 2S)     1.08075      -0.18296
   163    C   33  px     Val( 2p)     0.99592       0.12723
   164    C   33  py     Val( 2p)     0.94044       0.15623
   165    C   33  pz     Val( 2p)     1.01348       0.06699
 
   166    N   34  S      Cor( 1S)     1.99998     -15.27116
   167    N   34  S      Val( 2S)     1.40310      -0.59644
   168    N   34  px     Val( 2p)     1.11762      -0.00066
   169    N   34  py     Val( 2p)     1.06174       0.01479
   170    N   34  pz     Val( 2p)     1.69390      -0.23392
 
   171    C   35  S      Cor( 1S)     1.99996     -11.02089
   172    C   35  S      Val( 2S)     1.11035      -0.24582
   173    C   35  px     Val( 2p)     0.94574       0.08639
   174    C   35  py     Val( 2p)     0.95673       0.10283
   175    C   35  pz     Val( 2p)     0.96529       0.07156
 
   176    C   36  S      Cor( 1S)     1.99996     -11.05871
   177    C   36  S      Val( 2S)     1.11123      -0.26399
   178    C   36  px     Val( 2p)     0.94847       0.07443
   179    C   36  py     Val( 2p)     0.84071       0.11648
   180    C   36  pz     Val( 2p)     0.92800       0.07674
 
   181    C   37  S      Cor( 1S)     1.99991     -11.04363
   182    C   37  S      Val( 2S)     1.12062      -0.26504
   183    C   37  px     Val( 2p)     0.88101       0.09264
   184    C   37  py     Val( 2p)     0.92895       0.05886
   185    C   37  pz     Val( 2p)     0.99621       0.05689
 
   186    C   38  S      Cor( 1S)     1.99994     -10.98930
   187    C   38  S      Val( 2S)     1.10449      -0.22425
   188    C   38  px     Val( 2p)     1.01385       0.07187
   189    C   38  py     Val( 2p)     0.98342       0.07939
   190    C   38  pz     Val( 2p)     0.98450       0.07390
 
   191    C   39  S      Cor( 1S)     1.99995     -10.99174
   192    C   39  S      Val( 2S)     1.09246      -0.21455
   193    C   39  px     Val( 2p)     1.00661       0.07357
   194    C   39  py     Val( 2p)     0.97603       0.07550
   195    C   39  pz     Val( 2p)     0.99752       0.07738
 
   196    C   40  S      Cor( 1S)     1.99998     -11.02659
   197    C   40  S      Val( 2S)     1.10511      -0.24955
   198    C   40  px     Val( 2p)     0.94000       0.08589
   199    C   40  py     Val( 2p)     0.94993       0.08921
   200    C   40  pz     Val( 2p)     0.95487       0.07946
 
   201    N   41  S      Cor( 1S)     1.99999     -15.42096
   202    N   41  S      Val( 2S)     1.40224      -0.66477
   203    N   41  px     Val( 2p)     1.25417      -0.13231
   204    N   41  py     Val( 2p)     1.15556      -0.10307
   205    N   41  pz     Val( 2p)     1.16207      -0.10538
 
   206    C   42  S      Cor( 1S)     1.99991     -11.03853
   207    C   42  S      Val( 2S)     1.08958      -0.23568
   208    C   42  px     Val( 2p)     0.99644       0.05815
   209    C   42  py     Val( 2p)     0.83318       0.09232
   210    C   42  pz     Val( 2p)     1.03727       0.03939
 
   211    C   43  S      Cor( 1S)     1.99997     -11.00168
   212    C   43  S      Val( 2S)     1.07907      -0.21258
   213    C   43  px     Val( 2p)     0.97497       0.06965
   214    C   43  py     Val( 2p)     1.00908       0.06049
   215    C   43  pz     Val( 2p)     1.01800       0.06448
 
   216    C   44  S      Cor( 1S)     1.99996     -10.99834
   217    C   44  S      Val( 2S)     1.08478      -0.21305
   218    C   44  px     Val( 2p)     1.00449       0.06835
   219    C   44  py     Val( 2p)     0.97725       0.07317
   220    C   44  pz     Val( 2p)     1.00343       0.07024
 
   221    C   45  S      Cor( 1S)     1.99994     -10.99125
   222    C   45  S      Val( 2S)     1.09389      -0.21191
   223    C   45  px     Val( 2p)     1.02246       0.06726
   224    C   45  py     Val( 2p)     0.96641       0.08007
   225    C   45  pz     Val( 2p)     0.99792       0.08305
 
   226    C   46  S      Cor( 1S)     1.99992     -11.03105
   227    C   46  S      Val( 2S)     1.09065      -0.22927
   228    C   46  px     Val( 2p)     1.04052       0.05063
   229    C   46  py     Val( 2p)     0.99964       0.05509
   230    C   46  pz     Val( 2p)     0.83145       0.09231
 
   231    C   47  S      Cor( 1S)     1.99992     -10.99865
   232    C   47  S      Val( 2S)     1.09916      -0.22649
   233    C   47  px     Val( 2p)     1.01967       0.05980
   234    C   47  py     Val( 2p)     0.96973       0.07666
   235    C   47  pz     Val( 2p)     0.98692       0.06880
 
   236    C   48  S      Cor( 1S)     1.99995     -11.01761
[...]

 Contributions to Isotropic shielding for atom   94 (    32.2713 ppm):
                         Standard Origin              Atomic Origin
 NLMO      Total    Paramagnetic  Diamagnetic   Paramagnetic  Diamagnetic
  102       1.6486       -0.0202       1.6688         0.7470       0.9016
  103       0.1292        1.4846      -1.3554        -0.9198       1.0490
  104       0.2989        1.2370      -0.9381        -0.6217       0.9206
  105       0.5604        3.2320      -2.6716        -0.4761       1.0365
  106      26.1035       -0.3282      26.4318         0.4774      25.6261
  107       1.9849        2.6608      -0.6759         0.1753       1.8096
 Sum       30.7255        8.2659      22.4596        -0.6179      31.3434

 Contributions to Isotropic shielding for atom   95 (    32.5251 ppm):
                         Standard Origin              Atomic Origin
 NLMO      Total    Paramagnetic  Diamagnetic   Paramagnetic  Diamagnetic
   89      -0.3668        0.5360      -0.9027        -1.0170       0.6503
   97       0.1035       -0.9438       1.0473        -0.6196       0.7231
   98      -0.0829       -0.1036       0.0207        -1.1555       1.0727
  100      -0.3286        0.6216      -0.9502        -1.1277       0.7991
  102       1.9581       -1.8228       3.7809         1.1564       0.8017
  105       1.0822        1.4761      -0.3938         0.1887       0.8935
  106       1.8354        3.4046      -1.5692         0.0045       1.8309
  107      26.2737        0.1177      26.1560         0.4362      25.8374
 Sum       30.4746        3.2856      27.1890        -2.1340      32.6086

 Contributions to Isotropic shielding for atom   96 (    32.4536 ppm):
                         Standard Origin              Atomic Origin
 NLMO      Total    Paramagnetic  Diamagnetic   Paramagnetic  Diamagnetic
   89      -0.3377        0.4491      -0.7868        -1.0924       0.7548
   90      -0.0404        0.9693      -1.0098        -0.7888       0.7484
   94      -0.1776        0.8615      -1.0391        -1.0449       0.8673
   97       1.8101       -1.2143       3.0244         0.9966       0.8134
  105       1.5076       -0.2885       1.7961         0.6270       0.8806
  108      26.2822        0.2143      26.0679         0.4872      25.7950
  109       1.4949        4.0619      -2.5670        -0.2964       1.7913
 Sum       30.5391        5.0533      25.4858        -1.1117      31.6508

 Contributions to Isotropic shielding for atom   97 (    32.3927 ppm):
                         Standard Origin              Atomic Origin
 NLMO      Total    Paramagnetic  Diamagnetic   Paramagnetic  Diamagnetic
   94      -0.2408        1.6162      -1.8570        -0.9312       0.6904
   97       1.0879        0.9527       0.1352         0.3156       0.7724
   98      -0.3354        1.5969      -1.9323        -1.3865       1.0511
  105       0.7337        2.3161      -1.5824        -0.2167       0.9505
  106       0.2516        1.1114      -0.8597        -0.7171       0.9688
  108       1.9194        3.1878      -1.2684         0.1434       1.7760
  109      26.4648       -0.4263      26.8911         0.6866      25.7782
 Sum       29.8813       10.3549      19.5264        -2.1060      31.9872

 Contributions to Isotropic shielding for atom   98 (    32.1471 ppm):
                         Standard Origin              Atomic Origin
 NLMO      Total    Paramagnetic  Diamagnetic   Paramagnetic  Diamagnetic
   71      -0.0992       -1.1692       1.0700        -1.2217       1.1225
   80       0.1776       -1.2024       1.3800        -0.9119       1.0896
   85       1.3881        0.0447       1.3435         0.5490       0.8392
  110       1.1960       -0.9634       2.1594         0.2993       0.8967
  111      25.4762        0.6037      24.8726         0.3307      25.1456
  112       1.9068        0.1429       1.7639        -0.1031       2.0099
  114      -0.0965       -1.1692       1.0727        -1.1858       1.0893
  121       0.0443       -1.1075       1.1518        -0.7490       0.7933
 Sum       29.9935       -4.8204      34.8139        -2.9926      32.9861

 Contributions to Isotropic shielding for atom   99 (    33.0411 ppm):
                         Standard Origin              Atomic Origin
 NLMO      Total    Paramagnetic  Diamagnetic   Paramagnetic  Diamagnetic
   79       0.4046       -0.7055       1.1101        -0.2307       0.6352
   81       0.2316       -0.8749       1.1065        -0.6084       0.8400
   85       0.5490        1.7031      -1.1540        -0.1897       0.7387
   87       0.0209       -1.1919       1.2129        -0.8151       0.8360
  110       0.9178        1.1950      -0.2772         0.2622       0.6557
  111       2.2546       -0.0820       2.3366         0.3222       1.9324
  112      25.9295        0.1202      25.8092         0.4679      25.4616
  115       0.0962       -1.0352       1.1314        -0.4835       0.5797
  118       0.7951       -1.3942       2.1894        -0.0291       0.8243
  120       1.5145       -0.7337       2.2482         0.6007       0.9138
  121      -0.2823       -3.5328       3.2506        -1.2566       0.9744
  123       0.3112       -1.2494       1.5606        -0.4514       0.7626
  124      -0.0635       -1.0101       0.9466        -0.5554       0.4920
  191      -0.6829        1.5270      -2.2098         0.1834      -0.8663
 Sum       31.9966       -7.2646      39.2611        -2.7835      34.7801

 Contributions to Isotropic shielding for atom  100 (    31.4981 ppm):
                         Standard Origin              Atomic Origin
 NLMO      Total    Paramagnetic  Diamagnetic   Paramagnetic  Diamagnetic
   98       0.1148       -1.3196       1.4344        -0.7579       0.8728
   99      -0.1241        0.2656      -0.3898        -1.0286       0.9044
  100      -0.0285        1.5295      -1.5579        -0.6078       0.5794
  107      -0.2744       -2.2828       2.0084        -0.8038       0.5294
  113      26.5038        0.2463      26.2575         0.9701      25.5337
  114       1.7871        0.6745       1.1126        -0.1146       1.9017
  115       0.1139       -1.0123       1.1262        -0.4912       0.6051
  116      -0.5544       -2.6016       2.0472        -0.5811       0.0267
  121       0.1838       -1.5572       1.7410        -0.7924       0.9763
  191      -0.5293        0.9397      -1.4690         0.3636      -0.8929
 Sum       27.1927       -5.1178      32.3106        -3.8438      31.0365

 Contributions to Isotropic shielding for atom  101 (    31.1016 ppm):
                         Standard Origin              Atomic Origin
 NLMO      Total    Paramagnetic  Diamagnetic   Paramagnetic  Diamagnetic
  100       1.3464       -0.2354       1.5818         0.4844       0.8620
  101       0.1643       -0.6455       0.8098        -0.8679       1.0322
  104      -0.1409       -1.4223       1.2814        -0.9032       0.7622
  110       1.1627       -1.1331       2.2958         0.1921       0.9707
  111      -0.0117       -0.4078       0.3960        -1.1880       1.1763
  113       1.3539        1.2531       0.1008        -0.4037       1.7576
  114      25.6352        0.7316      24.9036         0.6941      24.9411
 Sum       29.5099       -1.8595      31.3693        -1.9921      31.5020

 Contributions to Isotropic shielding for atom  102 (    31.6281 ppm):
                         Standard Origin              Atomic Origin
 NLMO      Total    Paramagnetic  Diamagnetic   Paramagnetic  Diamagnetic
   83      -0.1813        0.2586      -0.4399        -1.0029       0.8216
   87       0.3361       -0.8246       1.1607         0.0527       0.2835
   98       1.8680       -1.5894       3.4574         0.9358       0.9323
  107      -0.4491       -1.2441       0.7950        -0.8110       0.3619
  115       1.3171       -0.3100       1.6271         0.4648       0.8523
  116      26.1194        0.3103      25.8091         0.4709      25.6484
  117       1.2979        3.1111      -1.8132        -0.6134       1.9113
  118       0.2011       -0.3413       0.5424        -0.8928       1.0940
  119       0.3045        1.0347      -0.7302        -0.1227       0.4272
  120      -0.1911       -0.7482       0.5571        -1.0703       0.8792
  121       0.4029       -0.8941       1.2970        -1.3014       1.7043
 Sum       31.0257       -1.2368      32.2626        -3.8903      34.9160

 Contributions to Isotropic shielding for atom  103 (    32.1778 ppm):
                         Standard Origin              Atomic Origin
 NLMO      Total    Paramagnetic  Diamagnetic   Paramagnetic  Diamagnetic
   94      -0.2723        1.2875      -1.5598        -1.1342       0.8619
   96      -0.0339       -1.4331       1.3992        -0.8057       0.7718
   97      -0.2117        1.3150      -1.5266        -1.0288       0.8172
   98       0.9945        1.7632      -0.7687         0.0068       0.9876
  109      -0.0496       -1.3812       1.3316        -0.8323       0.7826
  115       0.4219        3.3384      -2.9165        -0.6472       1.0690
  116       1.9426        2.4079      -0.4653         0.0426       1.9000
  117      26.6035       -0.8306      27.4341         0.7749      25.8285
  119      -0.1490        0.0661      -0.2151        -1.3004       1.1514
  121       0.1115       -0.0302       0.1417        -0.9154       1.0270
 Sum       29.3575        6.5028      22.8546        -5.8396      35.1971

 Contributions to Isotropic shielding for atom  104 (    31.1602 ppm):
                         Standard Origin              Atomic Origin
 NLMO      Total    Paramagnetic  Diamagnetic   Paramagnetic  Diamagnetic
   81      -0.5834        1.2514      -1.8348        -1.2898       0.7064
   82      -0.1443        0.3703      -0.5146        -1.0893       0.9450
   86      -0.4471        1.6360      -2.0831        -1.5538       1.1067
   87       1.4449        1.3148       0.1301         0.5071       0.9379
   92      -0.0295       -1.0100       0.9804        -0.8268       0.7972
  115       0.8511        3.6335      -2.7824        -0.2709       1.1220
  117      -0.1406       -0.1184      -0.0223        -1.3095       1.1689
  118       0.3420        4.4202      -4.0782        -0.5471       0.8892
  119      26.0988       -1.1994      27.2982         0.5927      25.5061
  122      -0.1821       -0.4866       0.3044        -1.8591       1.6770
  127      -0.2061       -2.2291       2.0230        -0.6196       0.4135
  193      -0.4349       -0.5577       0.1228         0.5718      -1.0067
 Sum       26.5689        7.0252      19.5437        -7.6944      34.2633

 Contributions to Isotropic shielding for atom  105 (    30.7003 ppm):
                         Standard Origin              Atomic Origin
 NLMO      Total    Paramagnetic  Diamagnetic   Paramagnetic  Diamagnetic
  120      -0.5202        0.0859      -0.6061        -1.4279       0.9077
  121      -0.0937        0.4162      -0.5099        -1.6192       1.5255
  123       2.6620       -5.1277       7.7898         1.2488       1.4132
  124      25.8666        1.0399      24.8267         0.7089      25.1577
  125       1.4602        0.2248       1.2354        -0.4151       1.8753
  126       1.5878        0.2642       1.3235        -0.4575       2.0453
  194       0.0505       -0.9900       1.0405        -0.4810       0.5314
 Sum       31.0133       -4.0866      35.0999        -2.4430      33.4563

 Contributions to Isotropic shielding for atom  106 (    30.5917 ppm):
                         Standard Origin              Atomic Origin
 NLMO      Total    Paramagnetic  Diamagnetic   Paramagnetic  Diamagnetic
  120      -1.0562        0.5602      -1.6164        -1.9498       0.8936
  121      -0.2873        1.5609      -1.8482        -1.8481       1.5608
  122      -1.0261        0.5481      -1.5742        -1.8086       0.7825
  123       0.7445        1.3522      -0.6077        -0.7217       1.4662
  124       1.8484       -0.5315       2.3800        -0.0235       1.8720
  125      26.2874        0.5390      25.7484         1.0596      25.2278
  126       1.1843        3.7705      -2.5862        -0.8583       2.0426
  191       0.4212       -1.2173       1.6386         1.1944      -0.7731
  193       1.3605       -0.6575       2.0180         1.4211      -0.0606
 Sum       29.4768        5.9245      23.5523        -3.5350      33.0118

 Contributions to Isotropic shielding for atom  107 (    30.5357 ppm):
                         Standard Origin              Atomic Origin
 NLMO      Total    Paramagnetic  Diamagnetic   Paramagnetic  Diamagnetic
  120      -0.4646        0.0186      -0.4833        -1.0849       0.6202
  121       0.0087        0.5872      -0.5785        -1.0216       1.0303
  123       0.6104        2.4176      -1.8071        -1.4643       2.0747
  124       1.7664        0.0053       1.7611        -0.2296       1.9960
  125       0.8220        3.5393      -2.7173        -1.1639       1.9859
  126      26.0391        0.4261      25.6130         0.8726      25.1665
  193       0.5857       -0.8631       1.4488         1.0545      -0.4688
 Sum       29.3678        6.1310      23.2368        -3.0370      32.4048

 Contributions to Isotropic shielding for atom  108 (    30.9665 ppm):
                         Standard Origin              Atomic Origin
 NLMO      Total    Paramagnetic  Diamagnetic   Paramagnetic  Diamagnetic
   76      -0.6050        0.0834      -0.6884        -1.4568       0.8518
   81      -0.6261        1.6118      -2.2379        -1.3504       0.7243
   82       1.2079       -0.8310       2.0389         0.0242       1.1836
   86      -0.2790        0.9828      -1.2618        -1.1092       0.8303
   87      -0.2410        1.0435      -1.2845        -1.1206       0.8797
   92      -0.1224       -1.1447       1.0223        -0.6452       0.5228
  122       0.5242       -0.4793       1.0035        -0.0691       0.5933
  127      25.9953        0.1311      25.8642         0.6326      25.3627
  128       1.7178        3.0479      -1.3301        -0.2680       1.9858
  129       1.1398        2.6696      -1.5298        -0.6901       1.8299
  190       1.4705        0.0625       1.4080         1.4726      -0.0021
  193      -0.8748        0.0516      -0.9264         0.3976      -1.2725
 Sum       29.3072        7.2292      22.0780        -4.1823      33.4895

 Contributions to Isotropic shielding for atom  109 (    30.7197 ppm):
                         Standard Origin              Atomic Origin
 NLMO      Total    Paramagnetic  Diamagnetic   Paramagnetic  Diamagnetic
   75      -0.5658        0.7291      -1.2948        -1.2817       0.7159
   76      -0.9143        0.2227      -1.1371        -2.2790       1.3646
   79      -0.3853        1.0816      -1.4669        -1.0166       0.6313
   82       1.8603       -1.7013       3.5616         0.6149       1.2454
  127       1.5541        3.0652      -1.5111        -0.4145       1.9686
  128      25.9265        0.2852      25.6414         0.6042      25.3223
  129       1.3813        2.1064      -0.7250        -0.4151       1.7964
 Sum       28.8569        5.7889      23.0680        -4.1876      33.0445

 Contributions to Isotropic shielding for atom  110 (    31.9115 ppm):
                         Standard Origin              Atomic Origin
 NLMO      Total    Paramagnetic  Diamagnetic   Paramagnetic  Diamagnetic
   75      -0.3532        0.9952      -1.3484        -0.9683       0.6151
   76      -1.2402        0.3997      -1.6399        -2.4306       1.1905
   79      -0.5723        1.4109      -1.9832        -1.2302       0.6579
   82       1.7100       -2.0049       3.7149         0.9373       0.7727
   86      -0.1601        0.3667      -0.5268        -1.1889       1.0289
  127       1.7371        3.4080      -1.6709        -0.1761       1.9132
  128       1.8471        2.5545      -0.7074        -0.0502       1.8972
  129      26.6852        0.5489      26.1363         0.9946      25.6906
 Sum       29.6537        7.6790      21.9748        -4.1123      33.7660
 
 1\1\GINC-PCSN02\SP\RHF\STO-3G\C45H56N4O5\ABENIDD\30-May-2024\0\\# nmr=
 giao hf/sto-3g pop=nbo geom=connectivity\\pleiokomenine_C_1a\\0,1\C,0,
 0.,0.,0.\C,0,1.4013,0.,0.\C,0,2.0945,1.2294,0.\C,0,1.4098,2.4533,-0.02
 8\C,0,0.0281,2.4426,-0.0879\C,0,-0.6611,1.2141,-0.0528\N,0,-0.862,3.54
 26,-0.2383\C,0,-2.1401,1.504,-0.0647\C,0,-2.0622,2.8818,-0.813\C,0,-3.
 1261,0.5952,-0.7969\C,0,-1.7981,2.6246,-2.3682\C,0,-2.8784,1.7368,-2.9
 879\C,0,-3.8943,1.3395,-1.911\N,0,-4.1224,0.2515,0.226\C,0,-4.9713,-0.
 8367,-0.2111\C,0,-5.8091,-0.3086,-1.3888\C,0,-4.9662,0.3791,-2.48\C,0,
 -2.5888,1.4162,1.4169\C,0,-3.4007,0.1198,1.4708\C,0,-4.511,2.6697,-1.3
 489\C,0,-3.409,3.6371,-0.7963\C,0,-3.7412,4.3756,0.4935\O,0,-3.0624,5.
 2877,0.9531\O,0,-4.9191,3.9727,1.0424\C,0,-5.2672,4.6444,2.2531\C,0,-0
 .331,4.7693,-0.8045\C,0,2.1522,-1.3122,-0.0698\C,0,2.2948,-1.8324,-1.4
 852\C,0,1.1821,-2.3683,-2.1493\C,0,3.5198,-1.7255,-2.173\C,0,3.6459,-2
 .1532,-3.5021\C,0,2.5401,-2.6814,-4.1475\C,0,1.3118,-2.7584,-3.472\N,0
 ,2.4555,-3.1851,-5.472\C,0,0.2469,-3.218,-4.4365\C,0,1.2083,-3.9853,-5
 .4325\C,0,-0.8724,-4.1695,-3.9811\C,0,1.52,-5.4238,-4.8282\C,0,0.2374,
 -6.2571,-4.6869\C,0,-0.9806,-5.3599,-4.9938\N,0,-2.1137,-3.3014,-3.845
 9\C,0,-3.4052,-4.0758,-3.8733\C,0,-3.4892,-5.1805,-4.9085\C,0,-2.2949,
 -6.1207,-4.7933\C,0,-0.4918,-1.9408,-4.9187\C,0,-1.977,-2.2767,-4.9269
 \C,0,-0.8159,-4.9577,-6.5\C,0,0.5461,-4.2782,-6.7874\C,0,0.4088,-3.113
 6,-7.752\O,0,-0.6446,-2.5407,-8.004\O,0,1.5982,-2.8378,-8.3526\C,0,1.5
 61,-1.7229,-9.2436\C,0,3.6825,-3.717,-6.0457\O,0,-2.0902,-2.6485,-2.61
 97\H,0,-0.5616,-0.9295,0.0098\H,0,3.1821,1.238,-0.0002\H,0,1.9672,3.38
 22,-0.0391\H,0,-2.6219,-0.2994,-1.1849\H,0,-1.7682,3.5817,-2.9062\H,0,
 -0.8193,2.1675,-2.5594\H,0,-3.3718,2.2679,-3.8112\H,0,-2.4102,0.8481,-
 3.4291\H,0,-4.3901,-1.7174,-0.5099\H,0,-5.6506,-1.1447,0.5917\H,0,-6.3
 794,-1.1327,-1.8326\H,0,-6.5465,0.4105,-1.0089\H,0,-4.469,-0.4089,-3.0
 613\H,0,-5.6268,0.9087,-3.1767\H,0,-3.2283,2.2494,1.7062\H,0,-1.7686,1
 .3829,2.1438\H,0,-2.7528,-0.7641,1.49\H,0,-4.063,0.102,2.3411\H,0,-5.0
 482,3.1851,-2.1569\H,0,-5.2749,2.4395,-0.6014\H,0,-3.3548,4.4631,-1.52
 29\H,0,-6.2021,4.2135,2.6219\H,0,-4.4942,4.4938,3.0133\H,0,-5.4272,5.7
 107,2.0661\H,0,0.1763,4.5955,-1.76\H,0,0.378,5.2354,-0.1119\H,0,-1.132
 4,5.4942,-0.9767\H,0,1.6389,-2.0658,0.5423\H,0,3.1412,-1.197,0.3924\H,
 0,0.2149,-2.4289,-1.6585\H,0,4.3849,-1.2913,-1.6768\H,0,4.5991,-2.0512
 ,-4.0075\H,0,-0.7035,-4.5606,-2.9681\H,0,2.2269,-5.9668,-5.4687\H,0,2.
 0099,-5.3555,-3.8489\H,0,0.1789,-6.6758,-3.6745\H,0,0.2717,-7.114,-5.3
 716\H,0,-3.5042,-4.5113,-2.8703\H,0,-4.2043,-3.3372,-4.0039\H,0,-4.412
 2,-5.7503,-4.7493\H,0,-3.5625,-4.7578,-5.9149\H,0,-2.3062,-6.5976,-3.8
 046\H,0,-2.3911,-6.9283,-5.529\H,0,-0.358,-1.1159,-4.2039\H,0,-0.1383,
 -1.5377,-5.8664\H,0,-2.3218,-2.7111,-5.8626\H,0,-2.6116,-1.4225,-4.670
 3\H,0,-1.6536,-4.3533,-6.8455\H,0,-0.872,-5.8662,-7.1175\H,0,1.1523,-5
 .0145,-7.3372\H,0,1.2364,-0.8197,-8.7172\H,0,0.9039,-1.9355,-10.0925\H
 ,0,2.5736,-1.5575,-9.6214\H,0,3.481,-4.2129,-7.0002\H,0,4.3916,-2.9078
 ,-6.2508\H,0,4.1633,-4.4464,-5.3841\\Version=ES64L-G16RevB.01\State=1-
 A\HF=-2300.2196299\RMSD=3.402e-09\Dipole=0.1248307,-1.885015,-2.011816
 \Quadrupole=-1.0941508,2.6643342,-1.5701834,-1.718043,-5.6105703,2.501
 876\PG=C01 [X(C45H56N4O5)]\\@


 MATERIAL COPIED FROM ONE SCHOLARLY BOOK WITHOUT CREDIT COMPRISES PLAGIARISM.
 MATERIAL COPIED FROM TWO SCHOLARLY BOOKS COMPRISES AN ESSAY.
 MATERIAL COPIED FROM THREE SCHOLARLY BOOKS COMPRISES A DISSERTATION.
 MATERIAL COPIED FROM FOUR SCHOLARLY BOOKS COMPRISES A FIFTH SCHOLARLY BOOK.

                               -- C&EN, 25 FEB 1980
 Job cpu time:       0 days  0 hours 11 minutes 59.1 seconds.
 Elapsed time:       0 days  0 hours  2 minutes  0.3 seconds.
 File lengths (MBytes):  RWF=     67 Int=      0 D2E=      0 Chk=     10 Scr=      1
 Normal termination of Gaussian 16 at Thu May 30 08:39:13 2024.
