 Entering Gaussian System, Link 0=g16
 Input=1_pleiokomenine_1a_c_17.gjf
 Output=1_pleiokomenine_1a_c_17.log
 Initial command:
 /opt/gaussian/g16/l1.exe "/data/abenidd/Elvis/pleiokomenine_C/NMR_HF/1a/1_pleiokomenine_1a_c_17/Gau-24790.inp" -scrdir="/data/abenidd/Elvis/pleiokomenine_C/NMR_HF/1a/1_pleiokomenine_1a_c_17/"
 Entering Link 1 = /opt/gaussian/g16/l1.exe PID=     24792.
  
 Copyright (c) 1988-2017, Gaussian, Inc.  All Rights Reserved.
  
 This is part of the Gaussian(R) 16 program.  It is based on
 the Gaussian(R) 09 system (copyright 2009, Gaussian, Inc.),
 the Gaussian(R) 03 system (copyright 2003, Gaussian, Inc.),
 the Gaussian(R) 98 system (copyright 1998, Gaussian, Inc.),
 the Gaussian(R) 94 system (copyright 1995, Gaussian, Inc.),
 the Gaussian 92(TM) system (copyright 1992, Gaussian, Inc.),
 the Gaussian 90(TM) system (copyright 1990, Gaussian, Inc.),
 the Gaussian 88(TM) system (copyright 1988, Gaussian, Inc.),
 the Gaussian 86(TM) system (copyright 1986, Carnegie Mellon
 University), and the Gaussian 82(TM) system (copyright 1983,
 Carnegie Mellon University). Gaussian is a federally registered
 trademark of Gaussian, Inc.
  
 This software contains proprietary and confidential information,
 including trade secrets, belonging to Gaussian, Inc.
  
 This software is provided under written license and may be
 used, copied, transmitted, or stored only in accord with that
 written license.
  
 The following legend is applicable only to US Government
 contracts under FAR:
  
                    RESTRICTED RIGHTS LEGEND
  
 Use, reproduction and disclosure by the US Government is
 subject to restrictions as set forth in subparagraphs (a)
 and (c) of the Commercial Computer Software - Restricted
 Rights clause in FAR 52.227-19.
  
 Gaussian, Inc.
 340 Quinnipiac St., Bldg. 40, Wallingford CT 06492
  
  
 ---------------------------------------------------------------
 Warning -- This program may not be used in any manner that
 competes with the business of Gaussian, Inc. or will provide
 assistance to any competitor of Gaussian, Inc.  The licensee
 of this program is prohibited from giving any competitor of
 Gaussian, Inc. access to this program.  By using this program,
 the user acknowledges that Gaussian, Inc. is engaged in the
 business of creating and licensing software in the field of
 computational chemistry and represents and warrants to the
 licensee that it is not a competitor of Gaussian, Inc. and that
 it will not use this program in any manner prohibited above.
 ---------------------------------------------------------------
  

 Cite this work as:
 Gaussian 16, Revision B.01,
 M. J. Frisch, G. W. Trucks, H. B. Schlegel, G. E. Scuseria, 
 M. A. Robb, J. R. Cheeseman, G. Scalmani, V. Barone, 
 G. A. Petersson, H. Nakatsuji, X. Li, M. Caricato, A. V. Marenich, 
 J. Bloino, B. G. Janesko, R. Gomperts, B. Mennucci, H. P. Hratchian, 
 J. V. Ortiz, A. F. Izmaylov, J. L. Sonnenberg, D. Williams-Young, 
 F. Ding, F. Lipparini, F. Egidi, J. Goings, B. Peng, A. Petrone, 
 T. Henderson, D. Ranasinghe, V. G. Zakrzewski, J. Gao, N. Rega, 
 G. Zheng, W. Liang, M. Hada, M. Ehara, K. Toyota, R. Fukuda, 
 J. Hasegawa, M. Ishida, T. Nakajima, Y. Honda, O. Kitao, H. Nakai, 
 T. Vreven, K. Throssell, J. A. Montgomery, Jr., J. E. Peralta, 
 F. Ogliaro, M. J. Bearpark, J. J. Heyd, E. N. Brothers, K. N. Kudin, 
 V. N. Staroverov, T. A. Keith, R. Kobayashi, J. Normand, 
 K. Raghavachari, A. P. Rendell, J. C. Burant, S. S. Iyengar, 
 J. Tomasi, M. Cossi, J. M. Millam, M. Klene, C. Adamo, R. Cammi, 
 J. W. Ochterski, R. L. Martin, K. Morokuma, O. Farkas, 
 J. B. Foresman, and D. J. Fox, Gaussian, Inc., Wallingford CT, 2016.
 
 ******************************************
 Gaussian 16:  ES64L-G16RevB.01 20-Dec-2017
                30-May-2024 
 ******************************************
 %nprocshared=8
 Will use up to    8 processors via shared memory.
 ----------------------------------------------
 # nmr=giao hf/sto-3g pop=nbo geom=connectivity
 ----------------------------------------------
 1/38=1,57=2,172=1/1;
 2/12=2,17=6,18=5,40=1/2;
 3/6=3,11=9,25=1,30=1/1,2,3,8;
 4//1;
 5/5=2,38=5/2;
 8/6=1,10=90,11=11/1;
 10/13=100,45=16/2;
 6/7=2,8=2,9=2,10=2,28=1,40=1,64=1/1,7;
 99/9=1/99;
 ------------------
 pleiokomenine_C_1a
 ------------------
 Symbolic Z-matrix:
 Charge =  0 Multiplicity = 1
 C                     0.        0.        0. 
 C                     1.4022    0.        0. 
 C                     2.086     1.2337    0. 
 C                     1.3922    2.4538    0.0049 
 C                     0.0081    2.4409    0.0046 
 C                    -0.6699    1.2123    0.0275 
 N                    -0.8853    3.5459   -0.025 
 C                    -2.1485    1.4714    0.157 
 C                    -2.1555    2.9163   -0.4766 
 C                    -3.1616    0.5848   -0.5803 
 C                    -2.1383    2.7805   -2.0615 
 C                    -3.385     2.0452   -2.5709 
 C                    -4.17      1.4906   -1.3657 
 N                    -3.7421   -0.2655    0.4626 
 C                    -4.9622   -0.9601    0.081 
 C                    -5.9967   -0.0992   -0.6433 
 C                    -5.3734    0.6519   -1.8201 
 C                    -2.4907    1.2871    1.6564 
 C                    -3.7913    0.4955    1.6994 
 C                    -4.6445    2.7505   -0.5637 
 C                    -3.4589    3.6775   -0.177 
 C                    -3.6117    4.2566    1.2184 
 O                    -4.3758    3.8334    2.0772 
 O                    -2.8379    5.3687    1.3653 
 C                    -2.896     5.9545    2.6654 
 C                    -0.3897    4.7681   -0.6382 
 C                     2.17     -1.3075   -0.001 
 C                     1.7708   -2.2361    1.1274 
 C                     0.7886   -3.2126    0.914 
 C                     2.3124   -2.0666    2.4174 
 C                     1.8556   -2.8276    3.5006 
 C                     0.8342   -3.7399    3.2951 
 C                     0.3355   -3.9486    1.9974 
 N                     0.1357   -4.5073    4.27 
 C                    -0.7255   -5.0174    2.0552 
 C                    -1.1317   -4.8305    3.5685 
 C                    -1.9713   -4.8906    1.1802 
 C                    -2.1354   -3.6       3.6734 
 C                    -3.4281   -3.8746    2.8882 
 C                    -3.244    -5.1524    2.036 
 N                    -1.7805   -5.7987   -0.0426 
 C                    -2.7802   -6.9275   -0.0929 
 C                    -4.2226   -6.4656    0.0645 
 C                    -4.4428   -5.3726    1.1116 
 C                    -0.0948   -6.3349    1.5894 
 C                    -0.3767   -6.3476    0.098 
 C                    -3.0779   -6.3131    3.0795 
 C                    -1.9473   -6.0184    4.111 
 C                    -1.173    -7.2663    4.509 
 O                    -1.2186   -8.3371    3.9159 
 O                    -0.4894   -7.0651    5.6687 
 C                     0.282    -8.1863    6.0998 
 C                     0.1222   -3.9625    5.6219 
 O                    -1.8754   -5.0708   -1.2021 
 H                    -0.5678   -0.9257    0.0164 
 H                     3.1737    1.2523    0.0014 
 H                     1.9467    3.3849    0.0106 
 H                    -2.6548   -0.0794   -1.2937 
 H                    -2.0936    3.7707   -2.533 
 H                    -1.2445    2.2514   -2.4148 
 H                    -4.0095    2.73     -3.1585 
 H                    -3.0844    1.2412   -3.2542 
 H                    -4.6791   -1.7863   -0.5843 
 H                    -5.4217   -1.4362    0.9558 
 H                    -6.8046   -0.7412   -1.0137 
 H                    -6.4582    0.6037    0.0588 
 H                    -5.0547   -0.0783   -2.5754 
 H                    -6.1308    1.2848   -2.2977 
 H                    -1.7276    0.6799    2.1652 
 H                    -2.5381    2.2147    2.2258 
 H                    -3.8139   -0.1655    2.5726 
 H                    -4.6594    1.1529    1.7669 
 H                    -5.335     3.3329   -1.1907 
 H                    -5.2435    2.467     0.3019 
 H                    -3.5242    4.5551   -0.8386 
 H                    -3.9031    6.3307    2.8696 
 H                    -2.5885    5.232     3.4281 
 H                    -2.1999    6.7975    2.6883 
 H                     0.0393    4.5867   -1.6302 
 H                     0.3749    5.2308   -0.005 
 H                    -1.1958    5.4996   -0.751 
 H                     2.0193   -1.8022   -0.9693 
 H                     3.249    -1.1183    0.068 
 H                     0.3531   -3.3513   -0.0735 
 H                     3.072    -1.3069    2.5899 
 H                     2.2748   -2.6587    4.4855 
 H                    -2.0366   -3.8817    0.7469 
 H                    -2.393    -3.3959    4.7205 
 H                    -1.6824   -2.6731    3.2997 
 H                    -3.6648   -3.0064    2.2613 
 H                    -4.2706   -3.9909    3.5817 
 H                    -2.6408   -7.4143   -1.0663 
 H                    -2.4964   -7.6542    0.6703 
 H                    -4.5945   -6.1001   -0.901 
 H                    -4.8419   -7.3372    0.3092 
 H                    -4.659    -4.4368    0.5778 
 H                    -5.3472   -5.5945    1.6916 
 H                     0.9764   -6.4267    1.7979 
 H                    -0.5843   -7.2077    2.0099 
 H                    -0.3361   -7.3448   -0.3503 
 H                     0.2903   -5.6804   -0.4569 
 H                    -2.9264   -7.2741    2.5893 
 H                    -4.0191   -6.4331    3.6346 
 H                    -2.451    -5.7155    5.0421 
 H                     0.8276   -7.895     7.0016 
 H                     1.0091   -8.4716    5.3329 
 H                    -0.3731   -9.0273    6.3468 
 H                    -0.5772   -4.5147    6.2568 
 H                     1.1125   -4.0561    6.0803 
 H                    -0.1755   -2.9078    5.6394 
 
 Stoichiometry    C45H56N4O5
 Framework group  C1[X(C45H56N4O5)]
 Deg. of freedom   324
 Full point group                 C1      NOp   1
 Largest Abelian subgroup         C1      NOp   1
 Largest concise Abelian subgroup C1      NOp   1
                         Standard orientation:                         
 ---------------------------------------------------------------------
 Center     Atomic      Atomic             Coordinates (Angstroms)
 Number     Number       Type             X           Y           Z
 ---------------------------------------------------------------------
      1          6           0        1.671060   -1.531951   -1.422336
      2          6           0        1.463765   -2.806820   -1.968140
      3          6           0        2.520853   -3.740445   -1.945611
      4          6           0        3.767308   -3.419748   -1.385672
      5          6           0        3.959910   -2.157975   -0.850200
      6          6           0        2.899626   -1.238489   -0.853390
      7          7           0        5.138553   -1.615289   -0.270237
      8          6           0        3.321157   -0.002508   -0.101843
      9          6           0        4.875801   -0.151849   -0.325482
     10          6           0        2.868031    1.386673   -0.571838
     11          6           0        5.238949    0.391172   -1.775964
     12          6           0        4.891479    1.879092   -1.916586
     13          6           0        4.111854    2.334318   -0.667079
     14          7           0        1.831078    1.784425    0.384276
     15          6           0        1.478116    3.195590    0.356683
     16          6           0        2.664634    4.158104    0.315530
     17          6           0        3.643798    3.790817   -0.799751
     18          6           0        2.732155   -0.140824    1.324065
     19          6           0        2.167908    1.227587    1.683389
     20          6           0        5.115216    2.181865    0.526959
     21          6           0        5.689864    0.741621    0.626909
     22          6           0        5.821893    0.272497    2.065080
     23          8           0        5.270325    0.790097    3.028588
     24          8           0        6.705809   -0.760808    2.154996
     25          6           0        6.859782   -1.286199    3.472969
     26          6           0        6.403479   -2.172034   -0.723451
     27          6           0        0.123108   -3.173990   -2.573862
     28          6           0       -1.040759   -2.949563   -1.630468
     29          6           0       -1.745874   -1.739066   -1.666778
     30          6           0       -1.363116   -3.911602   -0.652342
     31          6           0       -2.347063   -3.662227    0.312423
     32          6           0       -2.988570   -2.434935    0.313432
     33          6           0       -2.706960   -1.499443   -0.697425
     34          7           0       -3.909093   -1.928363    1.274295
     35          6           0       -3.571465   -0.283685   -0.483047
     36          6           0       -3.806854   -0.462263    1.067021
     37          6           0       -2.995978    1.106400   -0.747998
     38          6           0       -2.535939    0.104480    1.839113
     39          6           0       -2.358290    1.608985    1.578491
     40          6           0       -3.319903    2.046600    0.448578
     41          7           0       -3.496192    1.567056   -2.124178
     42          6           0       -4.392449    2.778013   -2.044009
     43          6           0       -3.794565    3.920577   -1.234239
     44          6           0       -3.061750    3.498028    0.040120
     45          6           0       -4.756609   -0.369908   -1.451839
     46          6           0       -4.262773    0.382997   -2.673789
     47          6           0       -4.758815    1.843829    1.041978
     48          6           0       -4.970273    0.400141    1.589833
     49          6           0       -6.380097   -0.120007    1.351002
     50          8           0       -7.194050    0.388397    0.589775
     51          8           0       -6.653142   -1.176058    2.165187
     52          6           0       -7.953894   -1.736553    1.986623
     53          6           0       -3.816323   -2.501074    2.611463
     54          8           0       -2.438016    1.852894   -2.949917
     55          1           0        0.880865   -0.787090   -1.403332
     56          1           0        2.377079   -4.734539   -2.363397
     57          1           0        4.557661   -4.161193   -1.378546
     58          1           0        2.391558    1.329836   -1.560115
     59          1           0        6.308643    0.256161   -1.981713
     60          1           0        4.720041   -0.170810   -2.562447
     61          1           0        5.809527    2.468136   -2.036752
     62          1           0        4.304882    2.035119   -2.830497
     63          1           0        0.867664    3.367186   -0.539576
     64          1           0        0.826877    3.444332    1.203502
     65          1           0        2.296629    5.177496    0.149775
     66          1           0        3.174257    4.167708    1.285162
     67          1           0        3.146211    3.935548   -1.767584
     68          1           0        4.498541    4.477424   -0.782331
     69          1           0        1.890988   -0.849433    1.338236
     70          1           0        3.432797   -0.520627    2.066867
     71          1           0        1.278996    1.126380    2.315451
     72          1           0        2.892396    1.828315    2.235269
     73          1           0        5.959149    2.869840    0.373419
     74          1           0        4.668272    2.511787    1.464952
     75          1           0        6.729267    0.797980    0.268264
     76          1           0        7.298296   -0.533222    4.134939
     77          1           0        5.898719   -1.635425    3.863704
     78          1           0        7.541143   -2.139801    3.419685
     79          1           0        6.478446   -2.188035   -1.816673
     80          1           0        6.527785   -3.193666   -0.348668
     81          1           0        7.244471   -1.586763   -0.338996
     82          1           0       -0.017721   -2.591560   -3.493637
     83          1           0        0.119740   -4.225671   -2.888113
     84          1           0       -1.504418   -0.981355   -2.409495
     85          1           0       -0.815895   -4.851368   -0.616556
     86          1           0       -2.556949   -4.411894    1.066234
     87          1           0       -1.904353    1.054035   -0.872522
     88          1           0       -2.632081   -0.059322    2.920020
     89          1           0       -1.616464   -0.418105    1.546752
     90          1           0       -1.313170    1.812076    1.315278
     91          1           0       -2.558718    2.174956    2.497065
     92          1           0       -4.567162    3.096375   -3.079400
     93          1           0       -5.354107    2.451231   -1.644586
     94          1           0       -3.096022    4.485707   -1.864124
     95          1           0       -4.597400    4.623055   -0.979133
     96          1           0       -1.985170    3.634590   -0.132309
     97          1           0       -3.316844    4.184527    0.856959
     98          1           0       -5.066030   -1.389602   -1.704528
     99          1           0       -5.634463    0.156701   -1.090916
    100          1           0       -5.065432    0.746517   -3.322342
    101          1           0       -3.562352   -0.208549   -3.271655
    102          1           0       -5.530847    2.111229    0.321399
    103          1           0       -4.905058    2.546260    1.874803
    104          1           0       -4.901183    0.473486    2.686308
    105          1           0       -8.041700   -2.604596    2.645841
    106          1           0       -8.090581   -2.071784    0.953597
    107          1           0       -8.723424   -1.010023    2.264874
    108          1           0       -4.428887   -1.935612    3.320124
    109          1           0       -4.193236   -3.529432    2.612482
    110          1           0       -2.787622   -2.502859    2.989742
 ---------------------------------------------------------------------
 Rotational constants (GHZ):           0.0952947           0.0331419           0.0302886
 Standard basis: STO-3G (5D, 7F)
 There are   326 symmetry adapted cartesian basis functions of A   symmetry.
 There are   326 symmetry adapted basis functions of A   symmetry.
   326 basis functions,   978 primitive gaussians,   326 cartesian basis functions
   197 alpha electrons      197 beta electrons
       nuclear repulsion energy      8155.3071704475 Hartrees.
 NAtoms=  110 NActive=  110 NUniq=  110 SFac= 1.00D+00 NAtFMM=   60 NAOKFM=T Big=T
 Integral buffers will be    131072 words long.
 Raffenetti 1 integral format.
 Two-electron integral symmetry is turned on.
 One-electron integrals computed using PRISM.
 NBasis=   326 RedAO= T EigKep=  1.72D-01  NBF=   326
 NBsUse=   326 1.00D-06 EigRej= -1.00D+00 NBFU=   326
 ExpMin= 1.69D-01 ExpMax= 1.31D+02 ExpMxC= 1.31D+02 IAcc=3 IRadAn=         5 AccDes= 0.00D+00
 Harris functional with IExCor=  205 and IRadAn=       5 diagonalized for initial guess.
 HarFok:  IExCor=  205 AccDes= 0.00D+00 IRadAn=         5 IDoV= 1 UseB2=F ITyADJ=14
 ICtDFT=  3500011 ScaDFX=  1.000000  1.000000  1.000000  1.000000
 FoFCou: FMM=F IPFlag=           0 FMFlag=      100000 FMFlg1=        2001
         NFxFlg=           0 DoJE=T BraDBF=F KetDBF=T FulRan=T
         wScrn=  0.000000 ICntrl=       500 IOpCl=  0 I1Cent=   200000004 NGrid=           0
         NMat0=    1 NMatS0=      1 NMatT0=    0 NMatD0=    1 NMtDS0=    0 NMtDT0=    0
 Petite list used in FoFCou.
 Requested convergence on RMS density matrix=1.00D-08 within 128 cycles.
 Requested convergence on MAX density matrix=1.00D-06.
 Requested convergence on             energy=1.00D-06.
 No special actions if energy rises.
 Integral accuracy reduced to 1.0D-05 until final iterations.
 Initial convergence to 1.0D-05 achieved.  Increase integral accuracy.
 SCF Done:  E(RHF) =  -2300.22001164     A.U. after   16 cycles
            NFock= 16  Conv=0.35D-08     -V/T= 2.0092
 Range of M.O.s used for correlation:     1   326
 NBasis=   326 NAE=   197 NBE=   197 NFC=     0 NFV=     0
 NROrb=    326 NOA=   197 NOB=   197 NVA=   129 NVB=   129
          Differentiating once with respect to magnetic field using GIAOs.
          Electric field/nuclear overlap derivatives assumed to be zero.
 FoFCou: FMM=F IPFlag=           0 FMFlag=      100000 FMFlg1=        2001
         NFxFlg=           0 DoJE=F BraDBF=F KetDBF=T FulRan=T
         wScrn=  0.000000 ICntrl=      6100 IOpCl=  0 I1Cent=           7 NGrid=         110
         NMat0=    1 NMatS0=      1 NMatT0=    0 NMatD0=    1 NMtDS0=    0 NMtDT0=    0
 Symmetry not used in FoFCou.
 FoFJK:  IHMeth= 1 ICntrl=    6127 DoSepK=F KAlg= 0 I1Cent=           0 FoldK=F
 IRaf=         1 NMat=       1 IRICut=       1 DoRegI=T DoRafI=F ISym2E= 0 IDoP0=0 IntGTp=1.
          There are     3 degrees of freedom in the 1st order CPHF.  IDoFFX=0 NUNeed=     3.
      3 vectors produced by pass  0 Test12= 8.47D-13 3.33D-08 XBig12= 1.69D+02 1.97D+00.
 AX will form     3 AO Fock derivatives at one time.
      3 vectors produced by pass  1 Test12= 8.47D-13 3.33D-08 XBig12= 6.64D-01 2.78D-01.
      3 vectors produced by pass  2 Test12= 8.47D-13 3.33D-08 XBig12= 1.88D-02 3.53D-02.
      3 vectors produced by pass  3 Test12= 8.47D-13 3.33D-08 XBig12= 5.97D-04 1.01D-02.
      3 vectors produced by pass  4 Test12= 8.47D-13 3.33D-08 XBig12= 2.10D-05 9.18D-04.
      3 vectors produced by pass  5 Test12= 8.47D-13 3.33D-08 XBig12= 3.32D-07 8.87D-05.
      3 vectors produced by pass  6 Test12= 8.47D-13 3.33D-08 XBig12= 7.47D-09 1.29D-05.
      3 vectors produced by pass  7 Test12= 8.47D-13 3.33D-08 XBig12= 1.55D-10 1.75D-06.
      3 vectors produced by pass  8 Test12= 8.47D-13 3.33D-08 XBig12= 4.30D-12 3.27D-07.
      1 vectors produced by pass  9 Test12= 8.47D-13 3.33D-08 XBig12= 4.71D-14 4.72D-08.
 InvSVY:  IOpt=1 It=  1 EMax= 3.55D-15
 Solved reduced A of dimension    28 with     3 vectors.
 Calculating GIAO nuclear magnetic shielding tensors.
 SCF GIAO Magnetic shielding tensor (ppm):
      1  C    Isotropic =   124.4811   Anisotropy =   153.5111
   XX=    86.0752   YX=    53.3081   ZX=   -34.5892
   XY=    53.9780   YY=    89.1427   ZY=   -34.6858
   XZ=   -27.6197   YZ=   -42.5325   ZZ=   198.2253
   Eigenvalues:    33.7946   112.8268   226.8218
      2  C    Isotropic =   120.2139   Anisotropy =   156.6147
   XX=    65.0931   YX=    -1.7997   ZX=   -59.1475
   XY=     0.7617   YY=   104.9553   ZY=   -43.8900
   XZ=   -48.6696   YZ=   -43.4634   ZZ=   190.5933
   Eigenvalues:    40.6193    95.3987   224.6237
      3  C    Isotropic =   119.4568   Anisotropy =   148.1388
   XX=   121.2730   YX=    -1.4150   ZX=   -36.8609
   XY=     0.0035   YY=    53.7676   ZY=   -61.5733
   XZ=   -36.9185   YZ=   -56.0691   ZZ=   183.3298
   Eigenvalues:    28.7818   111.3726   218.2160
      4  C    Isotropic =   133.7603   Anisotropy =   141.8385
   XX=    96.8738   YX=    50.1062   ZX=   -29.1119
   XY=    41.5794   YY=   100.8171   ZY=   -33.0714
   XZ=   -32.2245   YZ=   -34.0752   ZZ=   203.5899
   Eigenvalues:    52.9512   120.0103   228.3193
      5  C    Isotropic =   109.2694   Anisotropy =   126.2873
   XX=    59.4902   YX=     0.0557   ZX=   -44.3640
   XY=     7.3568   YY=   106.0152   ZY=   -30.7212
   XZ=   -41.7886   YZ=   -44.6566   ZZ=   162.3028
   Eigenvalues:    42.1908    92.1565   193.4609
      6  C    Isotropic =   117.7397   Anisotropy =   139.3460
   XX=   110.8176   YX=    13.8881   ZX=   -36.6828
   XY=    13.5805   YY=    68.6000   ZY=   -53.4586
   XZ=   -43.2493   YZ=   -43.6139   ZZ=   173.8015
   Eigenvalues:    49.5650    93.0170   210.6371
      7  N    Isotropic =   273.9219   Anisotropy =    81.9839
   XX=   290.9335   YX=    30.7036   ZX=     8.1922
   XY=    46.4350   YY=   281.9608   ZY=     5.6325
   XZ=    22.8363   YZ=     8.2065   ZZ=   248.8715
   Eigenvalues:   241.4479   251.7400   328.5778
      8  C    Isotropic =   196.2713   Anisotropy =    13.7274
   XX=   198.2046   YX=    -8.8183   ZX=     1.5402
   XY=    -8.2806   YY=   195.2835   ZY=    -4.2630
   XZ=    -1.8442   YZ=     3.1653   ZZ=   195.3260
   Eigenvalues:   188.0339   195.3571   205.4229
      9  C    Isotropic =   180.9232   Anisotropy =    45.2774
   XX=   183.2929   YX=   -13.1227   ZX=    10.8949
   XY=    -9.5679   YY=   206.4743   ZY=     9.8455
   XZ=     0.6740   YZ=    -3.9378   ZZ=   153.0023
   Eigenvalues:   151.4578   180.2036   211.1081
     10  C    Isotropic =   190.3806   Anisotropy =    30.3045
   XX=   190.7930   YX=    -8.8644   ZX=   -18.7534
   XY=    -6.8331   YY=   191.8684   ZY=     5.4030
   XZ=   -13.6342   YZ=     5.2573   ZZ=   188.4803
   Eigenvalues:   173.2698   187.2883   210.5836
     11  C    Isotropic =   213.7171   Anisotropy =    19.0484
   XX=   206.8863   YX=     0.8771   ZX=    -3.6293
   XY=    -1.3239   YY=   212.5866   ZY=    -9.1970
   XZ=    -7.9478   YZ=    -3.8633   ZZ=   221.6785
   Eigenvalues:   204.0640   210.6714   226.4161
     12  C    Isotropic =   212.8384   Anisotropy =    21.2136
   XX=   210.2880   YX=    -5.7610   ZX=    -9.0224
   XY=    -6.4487   YY=   210.5752   ZY=     6.1395
   XZ=    -8.4156   YZ=     3.9355   ZZ=   217.6521
   Eigenvalues:   203.3054   208.2291   226.9808
     13  C    Isotropic =   213.6115   Anisotropy =     7.8472
   XX=   210.4379   YX=     0.4114   ZX=     4.3815
   XY=     0.2129   YY=   215.7142   ZY=    -3.1550
   XZ=     0.3478   YZ=    -3.6223   ZZ=   214.6824
   Eigenvalues:   208.8826   213.1090   218.8430
     14  N    Isotropic =   303.4041   Anisotropy =    54.8837
   XX=   283.2874   YX=   -49.9312   ZX=   -22.2576
   XY=   -32.1032   YY=   300.0074   ZY=    -7.0135
   XZ=   -24.0419   YZ=   -14.2455   ZZ=   326.9174
   Eigenvalues:   242.5445   327.6745   339.9932
     15  C    Isotropic =   205.2256   Anisotropy =    32.4765
   XX=   206.0015   YX=    -6.9165   ZX=     0.9184
   XY=    -8.1121   YY=   224.0650   ZY=    -4.1787
   XZ=    -0.7319   YZ=     0.0495   ZZ=   185.6104
   Eigenvalues:   185.4948   203.3055   226.8766
     16  C    Isotropic =   224.1580   Anisotropy =     9.6799
   XX=   229.0664   YX=    -1.7304   ZX=    -4.9071
   XY=     0.8128   YY=   223.9128   ZY=     2.7538
   XZ=    -3.1736   YZ=    -1.3544   ZZ=   219.4950
   Eigenvalues:   217.9752   223.8876   230.6113
     17  C    Isotropic =   215.2860   Anisotropy =    19.3757
   XX=   213.3043   YX=    -5.5769   ZX=    -1.8211
   XY=   -10.6241   YY=   223.7745   ZY=    -0.8590
   XZ=    -0.8805   YZ=     0.7622   ZZ=   208.7793
   Eigenvalues:   207.6167   210.0383   228.2031
     18  C    Isotropic =   210.6442   Anisotropy =    35.9010
   XX=   199.0059   YX=    -1.8279   ZX=   -15.8755
   XY=    -4.1214   YY=   210.1182   ZY=     3.5673
   XZ=   -19.3219   YZ=    10.7128   ZZ=   222.8085
   Eigenvalues:   189.6348   207.7196   234.5782
     19  C    Isotropic =   200.1272   Anisotropy =    40.2984
   XX=   184.1962   YX=   -13.2991   ZX=     4.5350
   XY=   -13.6870   YY=   201.4040   ZY=   -15.8353
   XZ=    -2.0084   YZ=   -15.6004   ZZ=   214.7814
   Eigenvalues:   175.5376   197.8513   226.9928
     20  C    Isotropic =   212.2048   Anisotropy =    21.2978
   XX=   210.3166   YX=    -1.8748   ZX=    12.1308
   XY=    -3.9725   YY=   215.0596   ZY=    -5.7369
   XZ=    12.2036   YZ=    -5.8990   ZZ=   211.2383
   Eigenvalues:   198.3556   211.8555   226.4034
     21  C    Isotropic =   209.0108   Anisotropy =     9.9036
   XX=   204.5008   YX=     4.2101   ZX=     3.3249
   XY=     5.4659   YY=   209.3141   ZY=     1.9315
   XZ=     6.9675   YZ=    -5.9551   ZZ=   213.2175
   Eigenvalues:   199.3608   212.0584   215.6132
     22  C    Isotropic =    96.3244   Anisotropy =    98.3379
   XX=   115.7779   YX=    59.2102   ZX=   -56.8427
   XY=    54.8714   YY=    78.5027   ZY=    83.4213
   XZ=   -42.1795   YZ=    65.8923   ZZ=    94.6927
   Eigenvalues:   -28.1312   155.2215   161.8831
     23  O    Isotropic =  -133.9694   Anisotropy =   887.2047
   XX=    80.1129   YX=   427.9442   ZX=   145.8268
   XY=   432.7855   YY=   -53.0488   ZY=   -49.2619
   XZ=   167.1464   YZ=   -52.7516   ZZ=  -428.9722
   Eigenvalues:  -569.8089  -289.5997   457.5004
     24  O    Isotropic =   283.9983   Anisotropy =   139.9756
   XX=   365.0207   YX=   -18.9223   ZX=    56.4019
   XY=    -4.2938   YY=   366.0636   ZY=   -39.0896
   XZ=   -23.1239   YZ=    87.0340   ZZ=   120.9105
   Eigenvalues:   117.3243   357.3551   377.3154
     25  C    Isotropic =   197.4199   Anisotropy =    57.3067
   XX=   181.0391   YX=    -4.1056   ZX=     9.5065
   XY=    -3.5192   YY=   187.0279   ZY=   -21.2681
   XZ=     9.8426   YZ=   -20.7221   ZZ=   224.1926
   Eigenvalues:   177.4272   179.2080   235.6243
     26  C    Isotropic =   209.9001   Anisotropy =    42.0494
   XX=   227.7303   YX=   -15.9404   ZX=    -8.0347
   XY=   -17.3039   YY=   200.8955   ZY=     3.5319
   XZ=    -7.7386   YZ=     5.7728   ZZ=   201.0745
   Eigenvalues:   192.8501   198.9171   237.9330
     27  C    Isotropic =   206.3199   Anisotropy =    17.4909
   XX=   217.0918   YX=    -0.4239   ZX=    -5.5534
   XY=    -1.2451   YY=   199.2153   ZY=     6.0397
   XZ=    -0.7367   YZ=     5.4321   ZZ=   202.6527
   Eigenvalues:   194.8780   206.1011   217.9805
     28  C    Isotropic =   119.4405   Anisotropy =   161.5509
   XX=   121.5436   YX=    45.4057   ZX=    78.6515
   XY=    44.1448   YY=   115.0109   ZY=    31.4830
   XZ=    81.2248   YZ=    30.0091   ZZ=   121.7669
   Eigenvalues:    39.9891    91.1913   227.1411
     29  C    Isotropic =   122.7848   Anisotropy =   150.0928
   XX=   156.7505   YX=    19.2401   ZX=    61.7420
   XY=    11.9956   YY=    90.5997   ZY=    72.1978
   XZ=    51.9727   YZ=    65.9154   ZZ=   121.0042
   Eigenvalues:    29.9454   115.5624   222.8466
     30  C    Isotropic =   118.6232   Anisotropy =   156.7969
   XX=   134.4192   YX=    69.8863   ZX=    52.0102
   XY=    67.3668   YY=    69.5559   ZY=    30.6847
   XZ=    41.4611   YZ=    33.9774   ZZ=   151.8946
   Eigenvalues:    26.0329   106.6823   223.1545
     31  C    Isotropic =   133.5243   Anisotropy =   144.5516
   XX=   172.7041   YX=    27.3788   ZX=    50.7597
   XY=    24.7021   YY=   106.6787   ZY=    53.2603
   XZ=    51.2767   YZ=    68.0434   ZZ=   121.1902
   Eigenvalues:    50.7213   119.9596   229.8921
     32  C    Isotropic =   107.8576   Anisotropy =   129.2687
   XX=   129.0236   YX=    43.9257   ZX=    59.4952
   XY=    32.2463   YY=   107.1057   ZY=    17.8277
   XZ=    67.6605   YZ=    14.8327   ZZ=    87.4435
   Eigenvalues:    39.8304    89.7056   194.0367
     33  C    Isotropic =   120.3888   Anisotropy =   138.0718
   XX=   148.0908   YX=    37.3615   ZX=    53.0857
   XY=    55.7304   YY=    73.6174   ZY=    24.8398
   XZ=    46.4997   YZ=    23.4912   ZZ=   139.4581
   Eigenvalues:    51.2455    97.4842   212.4367
     34  N    Isotropic =   272.9966   Anisotropy =    80.0962
   XX=   262.3554   YX=   -12.5034   ZX=   -35.0201
   XY=   -17.1445   YY=   279.4782   ZY=    40.7623
   XZ=   -18.1669   YZ=    28.4329   ZZ=   277.1562
   Eigenvalues:   237.8265   254.7693   326.3941
     35  C    Isotropic =   197.4069   Anisotropy =    14.0115
   XX=   194.1960   YX=    -0.0352   ZX=     2.5211
   XY=     6.7087   YY=   194.9971   ZY=    -5.5550
   XZ=    -6.3385   YZ=    -5.6389   ZZ=   203.0277
   Eigenvalues:   190.6111   194.8618   206.7480
     36  C    Isotropic =   180.4481   Anisotropy =    44.4072
   XX=   159.5619   YX=     7.3806   ZX=    -7.1258
   XY=    -8.8373   YY=   205.6320   ZY=   -12.3089
   XZ=   -18.3694   YZ=   -11.3251   ZZ=   176.1505
   Eigenvalues:   151.8687   179.4228   210.0529
     37  C    Isotropic =   175.3260   Anisotropy =    55.7669
   XX=   172.1705   YX=     0.8431   ZX=    18.4827
   XY=    -2.4061   YY=   157.5917   ZY=   -22.1045
   XZ=    16.9513   YZ=   -20.4264   ZZ=   196.2158
   Eigenvalues:   146.2253   167.2488   212.5040
     38  C    Isotropic =   213.4262   Anisotropy =    20.4428
   XX=   219.0872   YX=     3.9797   ZX=    10.6817
   XY=    10.0354   YY=   211.9615   ZY=     1.1559
   XZ=     5.8579   YZ=     2.4660   ZZ=   209.2300
   Eigenvalues:   203.8967   209.3272   227.0548
     39  C    Isotropic =   212.0089   Anisotropy =    21.3290
   XX=   214.3377   YX=    -1.3031   ZX=     9.5433
   XY=    -3.2298   YY=   208.2533   ZY=    -8.9120
   XZ=     9.4731   YZ=    -6.5458   ZZ=   213.4358
   Eigenvalues:   201.1020   208.6965   226.2282
     40  C    Isotropic =   210.9524   Anisotropy =     8.5261
   XX=   210.7585   YX=     2.3549   ZX=     0.7031
   XY=     2.2244   YY=   215.5831   ZY=     0.4038
   XZ=     0.1405   YZ=     1.8208   ZZ=   206.5157
   Eigenvalues:   206.3758   209.8450   216.6365
     41  N    Isotropic =   226.8665   Anisotropy =    55.9055
   XX=   234.1188   YX=    29.4716   ZX=   -12.3920
   XY=    29.1490   YY=   201.5401   ZY=   -13.5180
   XZ=    -8.0266   YZ=   -12.7731   ZZ=   244.9406
   Eigenvalues:   183.6413   232.8213   264.1368
     42  C    Isotropic =   196.6367   Anisotropy =    47.1316
   XX=   193.9612   YX=   -22.0637   ZX=     6.0200
   XY=   -25.9322   YY=   211.0547   ZY=     7.3244
   XZ=     3.6481   YZ=     3.8578   ZZ=   184.8943
   Eigenvalues:   172.7697   189.0827   228.0578
     43  C    Isotropic =   221.6109   Anisotropy =    11.5789
   XX=   215.6431   YX=     0.5625   ZX=    10.0503
   XY=     0.5004   YY=   227.0885   ZY=    -2.1372
   XZ=     9.3528   YZ=    -0.3857   ZZ=   222.1012
   Eigenvalues:   208.5734   226.9292   229.3302
     44  C    Isotropic =   217.7048   Anisotropy =    19.9358
   XX=   212.8372   YX=     0.2419   ZX=     1.9360
   XY=     4.3322   YY=   226.6290   ZY=   -10.2976
   XZ=     1.5063   YZ=    -6.8790   ZZ=   213.6483
   Eigenvalues:   207.9990   214.1201   230.9953
     45  C    Isotropic =   214.1172   Anisotropy =    28.8686
   XX=   213.5615   YX=    14.7157   ZX=    13.7031
   XY=     7.2416   YY=   206.2793   ZY=    -3.3625
   XZ=    15.5497   YZ=   -10.8422   ZZ=   222.5107
   Eigenvalues:   191.3336   217.6550   233.3629
     46  C    Isotropic =   186.7746   Anisotropy =    61.9631
   XX=   179.4879   YX=    30.9202   ZX=     2.9397
   XY=    25.7893   YY=   201.9942   ZY=    21.8192
   XZ=    12.6626   YZ=    11.8807   ZZ=   178.8418
   Eigenvalues:   159.5787   172.6618   228.0833
     47  C    Isotropic =   212.0111   Anisotropy =    24.4525
   XX=   220.1500   YX=     6.2730   ZX=    -9.8240
   XY=     6.6142   YY=   214.3054   ZY=    -4.0795
   XZ=   -10.2034   YZ=    -2.8189   ZZ=   201.5779
   Eigenvalues:   197.1848   210.5357   228.3128
     48  C    Isotropic =   208.3255   Anisotropy =    12.3286
   XX=   216.3519   YX=     4.6370   ZX=    -3.1847
   XY=    -2.9147   YY=   208.2769   ZY=     4.2826
   XZ=    -0.1787   YZ=     5.5553   ZZ=   200.3477
   Eigenvalues:   197.8023   210.6296   216.5446
     49  C    Isotropic =    95.9568   Anisotropy =    98.2240
   XX=    77.4582   YX=   -79.4722   ZX=    28.5348
   XY=   -94.6675   YY=    71.1110   ZY=    32.1181
   XZ=    42.2881   YZ=    40.0347   ZZ=   139.3011
   Eigenvalues:   -28.1069   154.5378   161.4394
     50  O    Isotropic =  -131.2891   Anisotropy =   881.2845
   XX=  -317.3543   YX=   -56.9216   ZX=  -283.4733
   XY=   -70.9689   YY=   -66.7777   ZY=   414.5672
   XZ=  -260.1006   YZ=   416.4181   ZZ=    -9.7351
   Eigenvalues:  -561.0009  -289.1002   456.2340
     51  O    Isotropic =   282.9358   Anisotropy =   138.4834
   XX=   143.8061   YX=   -86.9874   ZX=   -34.3904
   XY=    31.6813   YY=   363.7993   ZY=     5.4003
   XZ=  -110.9387   YZ=   -41.9142   ZZ=   341.2022
   Eigenvalues:   115.8158   357.7336   375.2581
     52  C    Isotropic =   197.2075   Anisotropy =    58.3491
   XX=   225.4155   YX=    22.2562   ZX=     2.2079
   XY=    22.6992   YY=   188.1079   ZY=     1.9476
   XZ=     2.3874   YZ=     1.4526   ZZ=   178.0990
   Eigenvalues:   177.1597   178.3558   236.1069
     53  C    Isotropic =   209.4151   Anisotropy =    41.2063
   XX=   199.6512   YX=    -0.9552   ZX=    -0.7497
   XY=     1.7346   YY=   200.6152   ZY=   -18.4005
   XZ=    -0.8374   YZ=   -17.4947   ZZ=   227.9790
   Eigenvalues:   191.7292   199.6302   236.8860
     54  O    Isotropic =    27.6211   Anisotropy =   454.8222
   XX=   145.0968   YX=    64.1767   ZX=  -208.0588
   XY=    61.2348   YY=  -126.6248   ZY=   -69.0934
   XZ=  -199.7737   YZ=   -65.7940   ZZ=    64.3911
   Eigenvalues:  -148.0756   -99.8971   330.8359
     55  H    Isotropic =    26.0047   Anisotropy =    16.4424
   XX=    32.8018   YX=     4.7910   ZX=     2.0745
   XY=     4.8107   YY=    26.3405   ZY=     4.0079
   XZ=     5.0048   YZ=     5.3594   ZZ=    18.8718
   Eigenvalues:    16.5250    24.5228    36.9663
     56  H    Isotropic =    25.6968   Anisotropy =     6.6047
   XX=    29.1036   YX=    -2.1716   ZX=     1.0911
   XY=    -1.5442   YY=    26.5997   ZY=     2.0040
   XZ=     1.5633   YZ=     1.9489   ZZ=    21.3872
   Eigenvalues:    20.3209    26.6696    30.1000
     57  H    Isotropic =    26.5732   Anisotropy =     7.8794
   XX=    27.9569   YX=     0.5903   ZX=     2.1279
   XY=     0.3077   YY=    30.3375   ZY=     3.2696
   XZ=     2.5175   YZ=     3.3855   ZZ=    21.4254
   Eigenvalues:    19.7915    28.1020    31.8262
     58  H    Isotropic =    31.3567   Anisotropy =     8.8748
   XX=    32.8853   YX=     1.0448   ZX=     3.1816
   XY=     0.5830   YY=    28.5062   ZY=     2.2374
   XZ=     5.2711   YZ=     0.4443   ZZ=    32.6788
   Eigenvalues:    27.9829    28.8141    37.2733
     59  H    Isotropic =    32.1772   Anisotropy =    14.1358
   XX=    37.7181   YX=    -3.1750   ZX=    -6.0499
   XY=    -2.5317   YY=    30.2349   ZY=    -0.6050
   XZ=    -7.2795   YZ=    -1.5279   ZZ=    28.5787
   Eigenvalues:    24.1787    30.7518    41.6011
     60  H    Isotropic =    32.8705   Anisotropy =     8.4565
   XX=    28.6270   YX=     2.5050   ZX=     1.4653
   XY=     2.1697   YY=    33.1209   ZY=     4.0325
   XZ=    -1.0186   YZ=     1.4924   ZZ=    36.8636
   Eigenvalues:    27.5389    32.5645    38.5082
     61  H    Isotropic =    32.3470   Anisotropy =    15.5374
   XX=    35.8118   YX=     5.1949   ZX=    -5.9426
   XY=     4.9250   YY=    32.3153   ZY=    -3.2173
   XZ=    -5.8924   YZ=    -3.3478   ZZ=    28.9138
   Eigenvalues:    25.4883    28.8474    42.7052
     62  H    Isotropic =    32.4819   Anisotropy =    12.9592
   XX=    28.4201   YX=    -1.4446   ZX=     2.2101
   XY=    -1.6723   YY=    29.3133   ZY=    -2.6481
   XZ=     2.0165   YZ=    -3.8435   ZZ=    39.7121
   Eigenvalues:    27.2366    29.0877    41.1214
     63  H    Isotropic =    31.5533   Anisotropy =    15.2572
   XX=    38.1807   YX=    -1.5132   ZX=     5.9876
   XY=    -2.7952   YY=    28.7788   ZY=    -3.3123
   XZ=     6.1402   YZ=    -2.3486   ZZ=    27.7004
   Eigenvalues:    24.2178    28.7173    41.7248
     64  H    Isotropic =    31.8962   Anisotropy =    14.1493
   XX=    37.1810   YX=    -1.9107   ZX=    -5.9338
   XY=    -2.8191   YY=    30.0930   ZY=     2.6404
   XZ=    -6.2783   YZ=     2.8592   ZZ=    28.4146
   Eigenvalues:    24.8659    29.4936    41.3291
     65  H    Isotropic =    32.5986   Anisotropy =    16.9385
   XX=    29.8515   YX=    -4.0182   ZX=    -1.0345
   XY=    -3.7671   YY=    42.8115   ZY=    -0.1452
   XZ=    -0.8311   YZ=    -0.4482   ZZ=    25.1328
   Eigenvalues:    24.8865    29.0184    43.8909
     66  H    Isotropic =    32.5630   Anisotropy =    10.7262
   XX=    30.3816   YX=     0.7682   ZX=     3.7214
   XY=     0.4423   YY=    31.5231   ZY=     4.0720
   XZ=     3.7050   YZ=     4.3881   ZZ=    35.7842
   Eigenvalues:    27.6443    30.3309    39.7138
     67  H    Isotropic =    32.5097   Anisotropy =    12.3960
   XX=    29.3740   YX=    -2.6269   ZX=     2.2583
   XY=    -2.8290   YY=    31.5745   ZY=    -5.0471
   XZ=     2.2520   YZ=    -5.1913   ZZ=    36.5808
   Eigenvalues:    27.3037    29.4518    40.7737
     68  H    Isotropic =    32.4735   Anisotropy =    15.2157
   XX=    34.0231   YX=     6.2073   ZX=    -2.3587
   XY=     5.7299   YY=    37.8852   ZY=    -1.8195
   XZ=    -1.9048   YZ=    -1.4582   ZZ=    25.5122
   Eigenvalues:    25.0026    29.8007    42.6173
     69  H    Isotropic =    32.9304   Anisotropy =    12.8301
   XX=    36.1883   YX=     5.2251   ZX=    -3.3132
   XY=     7.2240   YY=    33.3941   ZY=    -0.9177
   XZ=    -2.7676   YZ=     2.3593   ZZ=    29.2089
   Eigenvalues:    26.2087    31.0987    41.4838
     70  H    Isotropic =    33.1389   Anisotropy =    11.4203
   XX=    35.0633   YX=    -3.0303   ZX=     3.4799
   XY=    -1.5909   YY=    28.5756   ZY=    -4.4238
   XZ=     3.8888   YZ=    -3.3707   ZZ=    35.7779
   Eigenvalues:    26.8076    31.8567    40.7524
     71  H    Isotropic =    32.1578   Anisotropy =    14.5882
   XX=    36.6442   YX=    -0.3444   ZX=    -5.9566
   XY=     0.7062   YY=    26.5514   ZY=    -0.8558
   XZ=    -7.4471   YZ=    -0.0895   ZZ=    33.2778
   Eigenvalues:    26.4952    28.0949    41.8833
     72  H    Isotropic =    32.0329   Anisotropy =     9.3527
   XX=    31.7158   YX=     1.1175   ZX=     2.8499
   XY=     1.9085   YY=    29.3295   ZY=     2.8283
   XZ=     2.9775   YZ=     3.9457   ZZ=    35.0534
   Eigenvalues:    27.7495    30.0812    38.2681
     73  H    Isotropic =    32.2275   Anisotropy =    15.1262
   XX=    36.4618   YX=     6.7910   ZX=     1.7105
   XY=     6.0166   YY=    35.0422   ZY=    -0.2856
   XZ=     2.1160   YZ=     0.2342   ZZ=    25.1784
   Eigenvalues:    24.7010    29.6698    42.3116
     74  H    Isotropic =    31.4142   Anisotropy =     8.8225
   XX=    29.7238   YX=    -1.5177   ZX=     0.0602
   XY=    -2.3840   YY=    29.3646   ZY=     3.4052
   XZ=     0.0265   YZ=     4.5942   ZZ=    35.1541
   Eigenvalues:    26.3799    30.5667    37.2959
     75  H    Isotropic =    31.2141   Anisotropy =    13.0825
   XX=    39.9167   YX=    -0.9039   ZX=    -0.7041
   XY=     0.2143   YY=    27.7181   ZY=    -1.5163
   XZ=    -0.0659   YZ=    -0.3061   ZZ=    26.0075
   Eigenvalues:    25.5963    28.1103    39.9357
     76  H    Isotropic =    30.6002   Anisotropy =    11.7379
   XX=    29.4234   YX=     0.8105   ZX=     5.2135
   XY=     1.5339   YY=    28.4630   ZY=     2.6100
   XZ=     5.9028   YZ=     2.4507   ZZ=    33.9143
   Eigenvalues:    25.5869    27.7883    38.4255
     77  H    Isotropic =    30.6977   Anisotropy =     7.4635
   XX=    31.7300   YX=     2.1391   ZX=    -1.6941
   XY=     1.2925   YY=    28.2907   ZY=    -4.0479
   XZ=    -0.8757   YZ=    -4.0248   ZZ=    32.0726
   Eigenvalues:    25.6227    30.7972    35.6734
     78  H    Isotropic =    30.5639   Anisotropy =    12.2495
   XX=    30.6473   YX=    -5.8895   ZX=     2.3178
   XY=    -6.0675   YY=    32.3850   ZY=    -1.8858
   XZ=     3.1967   YZ=    -2.4164   ZZ=    28.6594
   Eigenvalues:    25.2847    27.6768    38.7303
     79  H    Isotropic =    31.8818   Anisotropy =    11.9476
   XX=    31.4749   YX=    -3.3734   ZX=    -3.8784
   XY=    -2.6792   YY=    29.3712   ZY=     3.0285
   XZ=    -5.6924   YZ=     2.8272   ZZ=    34.7991
   Eigenvalues:    27.1654    28.6331    39.8468
     80  H    Isotropic =    30.7344   Anisotropy =    14.6110
   XX=    29.9784   YX=    -5.4988   ZX=     2.1014
   XY=    -5.2739   YY=    37.3916   ZY=    -1.2685
   XZ=     1.4847   YZ=    -1.3182   ZZ=    24.8331
   Eigenvalues:    24.2525    27.4756    40.4751
     81  H    Isotropic =    30.9102   Anisotropy =    11.0476
   XX=    37.8634   YX=    -0.5860   ZX=     2.7951
   XY=    -0.7896   YY=    28.8463   ZY=     2.7621
   XZ=     1.6769   YZ=     2.7673   ZZ=    26.0209
   Eigenvalues:    23.9581    30.4972    38.2752
     82  H    Isotropic =    29.9403   Anisotropy =     8.2824
   XX=    27.3340   YX=    -1.9054   ZX=     0.2455
   XY=    -3.1612   YY=    28.0845   ZY=    -1.8111
   XZ=     2.3486   YZ=    -2.1199   ZZ=    34.4025
   Eigenvalues:    25.1372    29.2219    35.4619
     83  H    Isotropic =    29.8266   Anisotropy =    12.7227
   XX=    27.8739   YX=    -0.3929   ZX=    -0.2044
   XY=    -1.5626   YY=    35.7109   ZY=     5.3319
   XZ=    -1.9123   YZ=     5.5759   ZZ=    25.8949
   Eigenvalues:    23.3916    27.7798    38.3083
     84  H    Isotropic =    24.9431   Anisotropy =    12.9728
   XX=    28.2605   YX=    -5.8645   ZX=    -2.7884
   XY=    -5.8163   YY=    24.6450   ZY=     2.6293
   XZ=    -2.5621   YZ=     1.7680   ZZ=    21.9238
   Eigenvalues:    20.2888    20.9489    33.5917
     85  H    Isotropic =    25.8882   Anisotropy =     6.9363
   XX=    25.7348   YX=     0.5596   ZX=    -3.8100
   XY=     0.3604   YY=    27.5398   ZY=    -1.3798
   XZ=    -5.2928   YZ=    -2.3182   ZZ=    24.3898
   Eigenvalues:    20.2887    26.8634    30.5123
     86  H    Isotropic =    26.6267   Anisotropy =     7.7210
   XX=    25.3154   YX=    -2.7665   ZX=    -4.0573
   XY=    -2.6013   YY=    30.3373   ZY=    -0.8293
   XZ=    -4.3814   YZ=    -0.1957   ZZ=    24.2273
   Eigenvalues:    20.0504    28.0555    31.7740
     87  H    Isotropic =    30.1296   Anisotropy =    10.7763
   XX=    37.1334   YX=     0.7190   ZX=    -2.3695
   XY=    -1.6294   YY=    27.1311   ZY=     0.1487
   XZ=    -0.2294   YZ=     1.4201   ZZ=    26.1244
   Eigenvalues:    25.6183    27.4568    37.3138
     88  H    Isotropic =    32.1714   Anisotropy =    12.0860
   XX=    27.3280   YX=     2.4742   ZX=     3.1007
   XY=     1.5801   YY=    29.8149   ZY=    -2.5103
   XZ=     1.3652   YZ=    -2.5521   ZZ=    39.3713
   Eigenvalues:    25.4525    30.8330    40.2287
     89  H    Isotropic =    32.8333   Anisotropy =    11.0522
   XX=    39.6699   YX=    -1.1278   ZX=     2.4046
   XY=    -3.0653   YY=    31.8949   ZY=     1.2574
   XZ=    -1.0223   YZ=     2.8388   ZZ=    26.9351
   Eigenvalues:    26.0581    32.2404    40.2014
     90  H    Isotropic =    31.9366   Anisotropy =    19.7892
   XX=    44.1858   YX=     4.6642   ZX=     0.7400
   XY=     3.4837   YY=    27.4557   ZY=    -0.9909
   XZ=     0.0924   YZ=     0.0426   ZZ=    24.1683
   Eigenvalues:    24.0395    26.6410    45.1294
     91  H    Isotropic =    32.1666   Anisotropy =    13.3141
   XX=    28.0986   YX=     1.0310   ZX=     1.7488
   XY=     1.0067   YY=    31.2220   ZY=     5.4923
   XZ=     1.4800   YZ=     6.1987   ZZ=    37.1791
   Eigenvalues:    27.6365    27.8205    41.0427
     92  H    Isotropic =    30.7960   Anisotropy =    14.6589
   XX=    26.1193   YX=    -2.8382   ZX=     5.8126
   XY=    -1.9270   YY=    30.3461   ZY=    -4.7166
   XZ=     4.4665   YZ=    -4.1143   ZZ=    35.9227
   Eigenvalues:    23.8754    27.9440    40.5686
     93  H    Isotropic =    31.7091   Anisotropy =     8.2381
   XX=    36.8999   YX=    -1.0733   ZX=     0.1808
   XY=    -1.7375   YY=    30.3201   ZY=    -1.1866
   XZ=    -0.1008   YZ=    -1.9101   ZZ=    27.9072
   Eigenvalues:    27.1147    30.8113    37.2011
     94  H    Isotropic =    31.1644   Anisotropy =    15.2659
   XX=    29.1819   YX=     4.9559   ZX=    -2.3074
   XY=     5.2616   YY=    33.9375   ZY=    -6.6429
   XZ=    -2.2157   YZ=    -6.3504   ZZ=    30.3737
   Eigenvalues:    24.7116    27.4399    41.3416
     95  H    Isotropic =    32.1489   Anisotropy =    16.5241
   XX=    32.0799   YX=    -8.4755   ZX=     0.4878
   XY=    -7.5332   YY=    37.3768   ZY=     0.6776
   XZ=     0.6373   YZ=     0.8633   ZZ=    26.9899
   Eigenvalues:    25.6709    27.6108    43.1649
     96  H    Isotropic =    31.7567   Anisotropy =    15.7781
   XX=    40.7494   YX=     4.5593   ZX=     0.8473
   XY=     4.1574   YY=    29.8270   ZY=    -2.6276
   XZ=     0.7530   YZ=    -2.1073   ZZ=    24.6935
   Eigenvalues:    23.4154    29.5792    42.2754
     97  H    Isotropic =    32.2435   Anisotropy =    13.7999
   XX=    26.5376   YX=    -1.4420   ZX=    -0.3172
   XY=    -0.9533   YY=    37.4317   ZY=     5.4462
   XZ=    -0.1486   YZ=     6.1750   ZZ=    32.7612
   Eigenvalues:    26.3612    28.9258    41.4434
     98  H    Isotropic =    32.7847   Anisotropy =    12.7300
   XX=    32.4807   YX=     4.3469   ZX=     3.1676
   XY=     5.9644   YY=    36.1348   ZY=     3.2116
   XZ=     4.1177   YZ=     1.7195   ZZ=    29.7387
   Eigenvalues:    27.0555    30.0273    41.2714
     99  H    Isotropic =    32.5227   Anisotropy =    11.0024
   XX=    38.8485   YX=    -2.0214   ZX=    -1.8345
   XY=    -2.6549   YY=    26.9213   ZY=     1.4993
   XZ=    -2.5613   YZ=    -1.7643   ZZ=    31.7983
   Eigenvalues:    26.4216    31.2889    39.8576
    100  H    Isotropic =    31.1273   Anisotropy =    14.0154
   XX=    30.7049   YX=    -0.8083   ZX=     8.0016
   XY=     0.7267   YY=    27.8634   ZY=     0.4375
   XZ=     6.8264   YZ=    -1.5790   ZZ=    34.8137
   Eigenvalues:    25.0311    27.8799    40.4709
    101  H    Isotropic =    30.2766   Anisotropy =    11.0159
   XX=    27.3430   YX=    -3.4145   ZX=    -1.0711
   XY=    -3.8185   YY=    28.8911   ZY=     5.5237
   XZ=    -2.5439   YZ=     2.1898   ZZ=    34.5958
   Eigenvalues:    24.2893    28.9200    37.6206
    102  H    Isotropic =    31.4715   Anisotropy =    10.3156
   XX=    36.1903   YX=    -3.3409   ZX=     2.2147
   XY=    -2.3400   YY=    28.7633   ZY=    -3.7507
   XZ=     1.9370   YZ=    -3.4805   ZZ=    29.4608
   Eigenvalues:    25.4250    30.6409    38.3485
    103  H    Isotropic =    32.0329   Anisotropy =    14.4034
   XX=    28.6549   YX=    -2.8086   ZX=    -5.1737
   XY=    -2.0324   YY=    34.7201   ZY=     5.3514
   XZ=    -4.8283   YZ=     6.2217   ZZ=    32.7239
   Eigenvalues:    25.0511    29.4125    41.6352
    104  H    Isotropic =    31.1633   Anisotropy =    11.8084
   XX=    27.9932   YX=     0.6440   ZX=    -3.6028
   XY=     1.5195   YY=    27.5287   ZY=     0.5200
   XZ=    -3.2315   YZ=    -0.5309   ZZ=    37.9680
   Eigenvalues:    26.1552    28.2990    39.0356
    105  H    Isotropic =    30.4923   Anisotropy =    12.0027
   XX=    30.2725   YX=     3.7709   ZX=    -2.7703
   XY=     3.3845   YY=    32.7442   ZY=    -5.3958
   XZ=    -2.1082   YZ=    -4.9774   ZZ=    28.4601
   Eigenvalues:    24.9903    27.9925    38.4941
    106  H    Isotropic =    30.5895   Anisotropy =     8.2279
   XX=    31.5256   YX=     3.3727   ZX=     1.4821
   XY=     3.7415   YY=    28.4574   ZY=     2.3189
   XZ=     2.0562   YZ=     3.2610   ZZ=    31.7855
   Eigenvalues:    25.7430    29.9508    36.0748
    107  H    Isotropic =    30.5384   Anisotropy =    11.8790
   XX=    36.7413   YX=    -2.2744   ZX=    -3.8301
   XY=    -2.5342   YY=    28.3238   ZY=     0.7734
   XZ=    -3.3131   YZ=     0.2274   ZZ=    26.5502
   Eigenvalues:    25.3984    27.7592    38.4578
    108  H    Isotropic =    30.9030   Anisotropy =    10.7806
   XX=    29.2666   YX=    -2.2177   ZX=    -4.5667
   XY=    -2.0335   YY=    28.5637   ZY=    -1.8010
   XZ=    -6.0547   YZ=    -1.4895   ZZ=    34.8788
   Eigenvalues:    24.3655    30.2535    38.0901
    109  H    Isotropic =    30.7516   Anisotropy =    14.7160
   XX=    27.1739   YX=     2.9125   ZX=    -2.4661
   XY=     2.9291   YY=    37.5515   ZY=    -4.7224
   XZ=    -3.5449   YZ=    -4.7981   ZZ=    27.5293
   Eigenvalues:    24.1884    27.5041    40.5622
    110  H    Isotropic =    31.9728   Anisotropy =    10.3466
   XX=    33.1891   YX=    -1.3211   ZX=     5.2982
   XY=    -1.5694   YY=    29.2382   ZY=    -3.4086
   XZ=     2.8857   YZ=    -4.0038   ZZ=    33.4910
   Eigenvalues:    26.9379    30.1099    38.8705
 End of Minotr F.D. properties file   721 does not exist.
 End of Minotr F.D. properties file   722 does not exist.
 End of Minotr F.D. properties file   788 does not exist.
 Hyperfine terms turned off by default for NAtoms > 100.

 **********************************************************************

            Population analysis using the SCF Density.

 **********************************************************************

 Orbital symmetries:
       Occupied  (A) (A) (A) (A) (A) (A) (A) (A) (A) (A) (A) (A)
                 (A) (A) (A) (A) (A) (A) (A) (A) (A) (A) (A) (A)
                 (A) (A) (A) (A) (A) (A) (A) (A) (A) (A) (A) (A)
                 (A) (A) (A) (A) (A) (A) (A) (A) (A) (A) (A) (A)
                 (A) (A) (A) (A) (A) (A) (A) (A) (A) (A) (A) (A)
                 (A) (A) (A) (A) (A) (A) (A) (A) (A) (A) (A) (A)
                 (A) (A) (A) (A) (A) (A) (A) (A) (A) (A) (A) (A)
                 (A) (A) (A) (A) (A) (A) (A) (A) (A) (A) (A) (A)
                 (A) (A) (A) (A) (A) (A) (A) (A) (A) (A) (A) (A)
                 (A) (A) (A) (A) (A) (A) (A) (A) (A) (A) (A) (A)
                 (A) (A) (A) (A) (A) (A) (A) (A) (A) (A) (A) (A)
                 (A) (A) (A) (A) (A) (A) (A) (A) (A) (A) (A) (A)
                 (A) (A) (A) (A) (A) (A) (A) (A) (A) (A) (A) (A)
                 (A) (A) (A) (A) (A) (A) (A) (A) (A) (A) (A) (A)
                 (A) (A) (A) (A) (A) (A) (A) (A) (A) (A) (A) (A)
                 (A) (A) (A) (A) (A) (A) (A) (A) (A) (A) (A) (A)
                 (A) (A) (A) (A) (A)
       Virtual   (A) (A) (A) (A) (A) (A) (A) (A) (A) (A) (A) (A)
                 (A) (A) (A) (A) (A) (A) (A) (A) (A) (A) (A) (A)
                 (A) (A) (A) (A) (A) (A) (A) (A) (A) (A) (A) (A)
                 (A) (A) (A) (A) (A) (A) (A) (A) (A) (A) (A) (A)
                 (A) (A) (A) (A) (A) (A) (A) (A) (A) (A) (A) (A)
                 (A) (A) (A) (A) (A) (A) (A) (A) (A) (A) (A) (A)
                 (A) (A) (A) (A) (A) (A) (A) (A) (A) (A) (A) (A)
                 (A) (A) (A) (A) (A) (A) (A) (A) (A) (A) (A) (A)
                 (A) (A) (A) (A) (A) (A) (A) (A) (A) (A) (A) (A)
                 (A) (A) (A) (A) (A) (A) (A) (A) (A) (A) (A) (A)
                 (A) (A) (A) (A) (A) (A) (A) (A) (A)
 The electronic state is 1-A.
 Alpha  occ. eigenvalues --  -20.31122 -20.30371 -20.25073 -20.24311 -19.91290
 Alpha  occ. eigenvalues --  -15.47890 -15.33914 -15.33115 -15.30101 -11.17102
 Alpha  occ. eigenvalues --  -11.16234 -11.10905 -11.10350 -11.10045 -11.09015
 Alpha  occ. eigenvalues --  -11.08983 -11.08435 -11.08148 -11.08036 -11.07570
 Alpha  occ. eigenvalues --  -11.07048 -11.06885 -11.06875 -11.06544 -11.06426
 Alpha  occ. eigenvalues --  -11.06052 -11.05869 -11.05775 -11.05393 -11.05315
 Alpha  occ. eigenvalues --  -11.05225 -11.05164 -11.05053 -11.04867 -11.04673
 Alpha  occ. eigenvalues --  -11.04418 -11.04243 -11.04008 -11.03983 -11.03685
 Alpha  occ. eigenvalues --  -11.03510 -11.03478 -11.03446 -11.03357 -11.01915
 Alpha  occ. eigenvalues --  -11.01836 -11.01791 -11.01692 -11.01604 -11.01451
 Alpha  occ. eigenvalues --  -11.01240 -11.01114 -11.00930 -11.00823  -1.38336
 Alpha  occ. eigenvalues --   -1.37584  -1.28159  -1.27725  -1.27381  -1.21296
 Alpha  occ. eigenvalues --   -1.20979  -1.18420  -1.11638  -1.09250  -1.08772
 Alpha  occ. eigenvalues --   -1.07324  -1.06081  -1.04466  -1.03328  -1.00618
 Alpha  occ. eigenvalues --   -1.00063  -0.98731  -0.98141  -0.97563  -0.96543
 Alpha  occ. eigenvalues --   -0.96371  -0.94089  -0.94037  -0.93677  -0.92299
 Alpha  occ. eigenvalues --   -0.92059  -0.91354  -0.91241  -0.89290  -0.87810
 Alpha  occ. eigenvalues --   -0.86477  -0.84797  -0.82727  -0.82135  -0.81535
 Alpha  occ. eigenvalues --   -0.80429  -0.79191  -0.78835  -0.78047  -0.77248
 Alpha  occ. eigenvalues --   -0.76841  -0.74553  -0.73693  -0.72820  -0.71919
 Alpha  occ. eigenvalues --   -0.70909  -0.69913  -0.69194  -0.69039  -0.66326
 Alpha  occ. eigenvalues --   -0.65572  -0.65130  -0.64562  -0.64298  -0.63506
 Alpha  occ. eigenvalues --   -0.63132  -0.61847  -0.61649  -0.61505  -0.60824
 Alpha  occ. eigenvalues --   -0.60531  -0.60316  -0.59342  -0.59237  -0.58480
 Alpha  occ. eigenvalues --   -0.58227  -0.58155  -0.57903  -0.57710  -0.57311
 Alpha  occ. eigenvalues --   -0.57047  -0.56609  -0.56420  -0.56210  -0.55451
 Alpha  occ. eigenvalues --   -0.55031  -0.54950  -0.54500  -0.54331  -0.54229
 Alpha  occ. eigenvalues --   -0.53453  -0.53366  -0.52985  -0.52540  -0.51946
 Alpha  occ. eigenvalues --   -0.51436  -0.51349  -0.51024  -0.50531  -0.50426
 Alpha  occ. eigenvalues --   -0.50304  -0.49671  -0.49452  -0.49012  -0.48906
 Alpha  occ. eigenvalues --   -0.48731  -0.48046  -0.47886  -0.47531  -0.47391
 Alpha  occ. eigenvalues --   -0.46742  -0.46496  -0.46020  -0.45599  -0.45329
 Alpha  occ. eigenvalues --   -0.45211  -0.44491  -0.44406  -0.44298  -0.44004
 Alpha  occ. eigenvalues --   -0.43979  -0.43387  -0.43122  -0.42422  -0.42280
 Alpha  occ. eigenvalues --   -0.42015  -0.41811  -0.41713  -0.41288  -0.41057
 Alpha  occ. eigenvalues --   -0.40764  -0.40114  -0.39031  -0.38759  -0.38000
 Alpha  occ. eigenvalues --   -0.37450  -0.36934  -0.36063  -0.35712  -0.34568
 Alpha  occ. eigenvalues --   -0.33850  -0.33710  -0.33068  -0.32391  -0.31694
 Alpha  occ. eigenvalues --   -0.27138  -0.26617  -0.25631  -0.21337  -0.20248
 Alpha  occ. eigenvalues --   -0.14936  -0.14673
 Alpha virt. eigenvalues --    0.26913   0.27278   0.27956   0.29380   0.29983
 Alpha virt. eigenvalues --    0.30733   0.46643   0.47037   0.48718   0.48775
 Alpha virt. eigenvalues --    0.49466   0.50032   0.50734   0.51116   0.52615
 Alpha virt. eigenvalues --    0.53121   0.54491   0.54584   0.55857   0.55984
 Alpha virt. eigenvalues --    0.56358   0.57582   0.58179   0.58435   0.58920
 Alpha virt. eigenvalues --    0.59479   0.59654   0.60012   0.60303   0.60971
 Alpha virt. eigenvalues --    0.61391   0.62009   0.62408   0.62499   0.63008
 Alpha virt. eigenvalues --    0.63526   0.63648   0.63778   0.64373   0.64437
 Alpha virt. eigenvalues --    0.64700   0.64834   0.65211   0.65324   0.65442
 Alpha virt. eigenvalues --    0.65541   0.65771   0.66077   0.66629   0.67157
 Alpha virt. eigenvalues --    0.67397   0.67844   0.68001   0.68127   0.68546
 Alpha virt. eigenvalues --    0.68810   0.69287   0.69374   0.69549   0.69779
 Alpha virt. eigenvalues --    0.69949   0.70193   0.70668   0.70779   0.70947
 Alpha virt. eigenvalues --    0.70977   0.71453   0.71531   0.71742   0.72629
 Alpha virt. eigenvalues --    0.73160   0.73342   0.73717   0.73892   0.74058
 Alpha virt. eigenvalues --    0.74256   0.74593   0.74912   0.75030   0.75243
 Alpha virt. eigenvalues --    0.75469   0.75756   0.75859   0.76316   0.76529
 Alpha virt. eigenvalues --    0.76745   0.77132   0.77368   0.77461   0.77812
 Alpha virt. eigenvalues --    0.78117   0.78511   0.78786   0.79106   0.79263
 Alpha virt. eigenvalues --    0.79758   0.80022   0.80261   0.80505   0.80945
 Alpha virt. eigenvalues --    0.81479   0.81620   0.81874   0.82161   0.82354
 Alpha virt. eigenvalues --    0.82999   0.84042   0.84521   0.84944   0.85096
 Alpha virt. eigenvalues --    0.86100   0.86837   0.86897   0.87637   0.87972
 Alpha virt. eigenvalues --    0.88033   0.89907   0.91160   0.91952   0.94163
 Alpha virt. eigenvalues --    0.94860   0.95650   0.98270   1.00794   1.01686
 Alpha virt. eigenvalues --    1.10989   1.11966   1.16012   1.16610
          Condensed to atoms (all electrons):
 Mulliken charges:
               1
     1  C   -0.074028
     2  C    0.000384
     3  C   -0.062686
     4  C   -0.090531
     5  C    0.088238
     6  C   -0.012706
     7  N   -0.286547
     8  C    0.018003
     9  C    0.127791
    10  C    0.040636
    11  C   -0.114854
    12  C   -0.105595
    13  C    0.028127
    14  N   -0.292112
    15  C   -0.015751
    16  C   -0.107868
    17  C   -0.102125
    18  C   -0.104861
    19  C   -0.019338
    20  C   -0.110521
    21  C   -0.066444
    22  C    0.319661
    23  O   -0.277745
    24  O   -0.255262
    25  C   -0.055722
    26  C   -0.078938
    27  C   -0.109611
    28  C    0.001889
    29  C   -0.074535
    30  C   -0.060032
    31  C   -0.089803
    32  C    0.089703
    33  C   -0.019060
    34  N   -0.285166
    35  C    0.014442
    36  C    0.128190
    37  C    0.033473
    38  C   -0.115769
    39  C   -0.105747
    40  C    0.032703
    41  N   -0.074002
    42  C   -0.008144
    43  C   -0.101565
    44  C   -0.101960
    45  C   -0.120450
    46  C   -0.012985
    47  C   -0.111389
    48  C   -0.066089
    49  C    0.321124
    50  O   -0.279279
    51  O   -0.254537
    52  C   -0.055273
    53  C   -0.079834
    54  O   -0.456168
    55  H    0.069777
    56  H    0.054561
    57  H    0.056975
    58  H    0.060864
    59  H    0.050085
    60  H    0.055443
    61  H    0.047641
    62  H    0.052355
    63  H    0.059040
    64  H    0.057683
    65  H    0.053503
    66  H    0.049245
    67  H    0.052674
    68  H    0.050611
    69  H    0.062498
    70  H    0.062696
    71  H    0.053722
    72  H    0.051252
    73  H    0.050825
    74  H    0.067129
    75  H    0.064561
    76  H    0.071910
    77  H    0.074344
    78  H    0.076933
    79  H    0.055397
    80  H    0.071200
    81  H    0.075674
    82  H    0.062285
    83  H    0.057227
    84  H    0.076008
    85  H    0.058617
    86  H    0.059299
    87  H    0.095549
    88  H    0.052262
    89  H    0.059524
    90  H    0.063523
    91  H    0.049774
    92  H    0.086720
    93  H    0.060313
    94  H    0.075493
    95  H    0.058631
    96  H    0.065377
    97  H    0.054043
    98  H    0.071543
    99  H    0.069980
   100  H    0.073920
   101  H    0.092753
   102  H    0.064806
   103  H    0.055373
   104  H    0.066680
   105  H    0.078394
   106  H    0.075698
   107  H    0.072960
   108  H    0.076381
   109  H    0.072241
   110  H    0.056697
 Sum of Mulliken charges =  -0.00000
 Mulliken charges with hydrogens summed into heavy atoms:
               1
     1  C   -0.004251
     2  C    0.000384
     3  C   -0.008124
     4  C   -0.033556
     5  C    0.088238
     6  C   -0.012706
     7  N   -0.286547
     8  C    0.018003
     9  C    0.127791
    10  C    0.101500
    11  C   -0.009326
    12  C   -0.005599
    13  C    0.028127
    14  N   -0.292112
    15  C    0.100973
    16  C   -0.005120
    17  C    0.001159
    18  C    0.020333
    19  C    0.085636
    20  C    0.007433
    21  C   -0.001883
    22  C    0.319661
    23  O   -0.277745
    24  O   -0.255262
    25  C    0.167465
    26  C    0.123332
    27  C    0.009901
    28  C    0.001889
    29  C    0.001473
    30  C   -0.001415
    31  C   -0.030504
    32  C    0.089703
    33  C   -0.019060
    34  N   -0.285166
    35  C    0.014442
    36  C    0.128190
    37  C    0.129021
    38  C   -0.003982
    39  C    0.007551
    40  C    0.032703
    41  N   -0.074002
    42  C    0.138888
    43  C    0.032559
    44  C    0.017460
    45  C    0.021073
    46  C    0.153688
    47  C    0.008789
    48  C    0.000592
    49  C    0.321124
    50  O   -0.279279
    51  O   -0.254537
    52  C    0.171778
    53  C    0.125485
    54  O   -0.456168
 Electronic spatial extent (au):  <R**2>=          37118.6826
 Charge=             -0.0000 electrons
 Dipole moment (field-independent basis, Debye):
    X=             -0.4093    Y=             -0.3725    Z=              3.4131  Tot=              3.4577
 Quadrupole moment (field-independent basis, Debye-Ang):
   XX=           -269.2325   YY=           -294.3729   ZZ=           -306.9916
   XY=              0.5471   XZ=            -11.2724   YZ=              2.7592
 Traceless Quadrupole moment (field-independent basis, Debye-Ang):
   XX=             20.9665   YY=             -4.1739   ZZ=            -16.7926
   XY=              0.5471   XZ=            -11.2724   YZ=              2.7592
 Octapole moment (field-independent basis, Debye-Ang**2):
  XXX=             32.0769  YYY=              6.8866  ZZZ=             73.0482  XYY=            -16.3283
  XXY=            -24.9494  XXZ=             44.6953  XZZ=            -18.2111  YZZ=            -42.4325
  YYZ=             25.0818  XYZ=            -15.6149
 Hexadecapole moment (field-independent basis, Debye-Ang**3):
 XXXX=         -30927.5827 YYYY=          -8816.9777 ZZZZ=          -5159.4270 XXXY=            203.5118
 XXXZ=             -9.5989 YYYX=            -96.0997 YYYZ=            -60.5363 ZZZX=             58.7961
 ZZZY=            -45.0611 XXYY=          -6625.3114 XXZZ=          -5911.0816 YYZZ=          -2347.8328
 XXYZ=           -226.9995 YYXZ=            -20.2614 ZZXY=            -54.0920
 N-N= 8.155307170447D+03 E-N=-2.168708714552D+04  KE= 2.279178936679D+03
 ******************************Gaussian NBO Version 3.1******************************
             N A T U R A L   A T O M I C   O R B I T A L   A N D
          N A T U R A L   B O N D   O R B I T A L   A N A L Y S I S
 ******************************Gaussian NBO Version 3.1******************************
       /RESON  / : Allow strongly delocalized NBO set
       /NLMO   / : Form Natural Localized Molecular Orbitals
       /NMR /    : Analyze NMR Sheilding Tensor 

 Analyzing the SCF density

 Job title: pleiokomenine_C_1a                                              

 Storage needed:    355564 in NPA,    438187 in NBO,   2133784 in NLMO ( 104796000 available)
 GSVD:  LWork=     -108884 too small for GESVD, short by      536270 words or      536270 for optimal perf.


 NATURAL POPULATIONS:  Natural atomic orbital occupancies 
                                                          
   NAO  Atom  No  lang   Type(AO)    Occupancy      Energy
 ----------------------------------------------------------
     1    C    1  S      Cor( 1S)     1.99993     -10.93612
     2    C    1  S      Val( 2S)     1.07977      -0.16766
     3    C    1  px     Val( 2p)     0.98371       0.15126
     4    C    1  py     Val( 2p)     0.98470       0.14993
     5    C    1  pz     Val( 2p)     1.00733       0.04789
 
     6    C    2  S      Cor( 1S)     1.99990     -10.94904
     7    C    2  S      Val( 2S)     1.07867      -0.17617
     8    C    2  px     Val( 2p)     0.94300       0.16502
     9    C    2  py     Val( 2p)     0.96305       0.16759
    10    C    2  pz     Val( 2p)     1.00059       0.05706
 
    11    C    3  S      Cor( 1S)     1.99994     -10.94064
    12    C    3  S      Val( 2S)     1.08417      -0.17572
    13    C    3  px     Val( 2p)     0.97065       0.15802
    14    C    3  py     Val( 2p)     0.97760       0.14903
    15    C    3  pz     Val( 2p)     1.00222       0.04697
 
    16    C    4  S      Cor( 1S)     1.99993     -10.93394
    17    C    4  S      Val( 2S)     1.07193      -0.16665
    18    C    4  px     Val( 2p)     0.99204       0.14571
    19    C    4  py     Val( 2p)     0.98113       0.15167
    20    C    4  pz     Val( 2p)     1.04241       0.03688
 
    21    C    5  S      Cor( 1S)     1.99985     -10.98054
    22    C    5  S      Val( 2S)     1.05917      -0.17711
    23    C    5  px     Val( 2p)     0.89988       0.15779
    24    C    5  py     Val( 2p)     0.97598       0.14967
    25    C    5  pz     Val( 2p)     0.95377       0.05534
 
    26    C    6  S      Cor( 1S)     1.99990     -10.93846
    27    C    6  S      Val( 2S)     1.08241      -0.17896
    28    C    6  px     Val( 2p)     0.97688       0.16699
    29    C    6  py     Val( 2p)     0.96321       0.13687
    30    C    6  pz     Val( 2p)     1.00198       0.06191
 
    31    N    7  S      Cor( 1S)     1.99998     -15.26366
    32    N    7  S      Val( 2S)     1.40614      -0.58980
    33    N    7  px     Val( 2p)     1.05864       0.03502
    34    N    7  py     Val( 2p)     1.10285       0.00435
    35    N    7  pz     Val( 2p)     1.70728      -0.23278
 
    36    C    8  S      Cor( 1S)     1.99996     -11.00090
    37    C    8  S      Val( 2S)     1.10865      -0.22586
    38    C    8  px     Val( 2p)     0.94697       0.09937
    39    C    8  py     Val( 2p)     0.95686       0.11851
    40    C    8  pz     Val( 2p)     0.96803       0.09492
 
    41    C    9  S      Cor( 1S)     1.99996     -11.04537
    42    C    9  S      Val( 2S)     1.11203      -0.25155
    43    C    9  px     Val( 2p)     0.94756       0.08551
    44    C    9  py     Val( 2p)     0.82754       0.13688
    45    C    9  pz     Val( 2p)     0.94155       0.08509
 
    46    C   10  S      Cor( 1S)     1.99993     -11.01177
    47    C   10  S      Val( 2S)     1.09686      -0.21316
    48    C   10  px     Val( 2p)     0.91334       0.11993
    49    C   10  py     Val( 2p)     0.95607       0.08702
    50    C   10  pz     Val( 2p)     0.95968       0.10096
 
    51    C   11  S      Cor( 1S)     1.99994     -10.97587
    52    C   11  S      Val( 2S)     1.10375      -0.21017
    53    C   11  px     Val( 2p)     1.01632       0.08672
    54    C   11  py     Val( 2p)     0.98214       0.09083
    55    C   11  pz     Val( 2p)     0.98289       0.08827
 
    56    C   12  S      Cor( 1S)     1.99996     -10.97339
    57    C   12  S      Val( 2S)     1.09149      -0.19565
    58    C   12  px     Val( 2p)     1.01131       0.08984
    59    C   12  py     Val( 2p)     0.97715       0.09593
    60    C   12  pz     Val( 2p)     0.99385       0.09417
 
    61    C   13  S      Cor( 1S)     1.99998     -10.99976
    62    C   13  S      Val( 2S)     1.10489      -0.22335
    63    C   13  px     Val( 2p)     0.94275       0.11423
    64    C   13  py     Val( 2p)     0.95401       0.11130
    65    C   13  pz     Val( 2p)     0.94794       0.10705
 
    66    N   14  S      Cor( 1S)     1.99999     -15.23386
    67    N   14  S      Val( 2S)     1.42102      -0.57552
    68    N   14  px     Val( 2p)     1.53887      -0.14402
    69    N   14  py     Val( 2p)     1.21500      -0.01221
    70    N   14  pz     Val( 2p)     1.10562       0.02749
 
    71    C   15  S      Cor( 1S)     1.99993     -11.00410
    72    C   15  S      Val( 2S)     1.06939      -0.18546
    73    C   15  px     Val( 2p)     0.98317       0.08816
    74    C   15  py     Val( 2p)     0.87552       0.13033
    75    C   15  pz     Val( 2p)     1.03420       0.07499
 
    76    C   16  S      Cor( 1S)     1.99997     -10.97294
    77    C   16  S      Val( 2S)     1.08094      -0.18626
    78    C   16  px     Val( 2p)     0.99189       0.09440
    79    C   16  py     Val( 2p)     1.00282       0.09172
    80    C   16  pz     Val( 2p)     0.99841       0.09722
 
    81    C   17  S      Cor( 1S)     1.99996     -10.97508
    82    C   17  S      Val( 2S)     1.08595      -0.19060
    83    C   17  px     Val( 2p)     1.00263       0.09304
    84    C   17  py     Val( 2p)     0.98242       0.09607
    85    C   17  pz     Val( 2p)     0.99750       0.09449
 
    86    C   18  S      Cor( 1S)     1.99995     -10.97168
    87    C   18  S      Val( 2S)     1.09225      -0.19231
    88    C   18  px     Val( 2p)     1.01608       0.09004
    89    C   18  py     Val( 2p)     0.99060       0.09581
    90    C   18  pz     Val( 2p)     0.97567       0.09992
 
    91    C   19  S      Cor( 1S)     1.99994     -10.99692
    92    C   19  S      Val( 2S)     1.07113      -0.18100
    93    C   19  px     Val( 2p)     1.00980       0.08926
    94    C   19  py     Val( 2p)     0.97529       0.08595
    95    C   19  pz     Val( 2p)     0.90991       0.12433
 
    96    C   20  S      Cor( 1S)     1.99992     -10.98082
    97    C   20  S      Val( 2S)     1.09978      -0.20872
    98    C   20  px     Val( 2p)     1.00135       0.08307
    99    C   20  py     Val( 2p)     0.96166       0.09410
   100    C   20  pz     Val( 2p)     1.01094       0.08439
 
   101    C   21  S      Cor( 1S)     1.99994     -11.00507
   102    C   21  S      Val( 2S)     1.11098      -0.23579
   103    C   21  px     Val( 2p)     1.01028       0.07283
   104    C   21  py     Val( 2p)     0.98700       0.07268
   105    C   21  pz     Val( 2p)     0.97616       0.07820
 
   106    C   22  S      Cor( 1S)     1.99991     -11.10942
   107    C   22  S      Val( 2S)     1.05516      -0.25845
   108    C   22  px     Val( 2p)     0.82505       0.06443
   109    C   22  py     Val( 2p)     0.81758       0.08782
   110    C   22  pz     Val( 2p)     0.89909       0.13096
 
   111    O   23  S      Cor( 1S)     1.99999     -20.09580
   112    O   23  S      Val( 2S)     1.80818      -1.05576
   113    O   23  px     Val( 2p)     1.41915      -0.17156
   114    O   23  py     Val( 2p)     1.53599      -0.21093
   115    O   23  pz     Val( 2p)     1.54868      -0.19146
 
   116    O   24  S      Cor( 1S)     1.99999     -20.21309
   117    O   24  S      Val( 2S)     1.73014      -1.02567
   118    O   24  px     Val( 2p)     1.63745      -0.27995
   119    O   24  py     Val( 2p)     1.50289      -0.21856
   120    O   24  pz     Val( 2p)     1.39642      -0.17901
 
   121    C   25  S      Cor( 1S)     1.99984     -11.04382
   122    C   25  S      Val( 2S)     1.07688      -0.22543
   123    C   25  px     Val( 2p)     1.04053       0.03841
   124    C   25  py     Val( 2p)     1.00972       0.04304
   125    C   25  pz     Val( 2p)     0.83837       0.08690
 
   126    C   26  S      Cor( 1S)     1.99992     -11.01149
   127    C   26  S      Val( 2S)     1.06526      -0.19198
   128    C   26  px     Val( 2p)     0.91390       0.09285
   129    C   26  py     Val( 2p)     1.02457       0.05948
   130    C   26  pz     Val( 2p)     1.01273       0.07350
 
   131    C   27  S      Cor( 1S)     1.99995     -10.97672
   132    C   27  S      Val( 2S)     1.08313      -0.18185
   133    C   27  px     Val( 2p)     0.97942       0.10285
   134    C   27  py     Val( 2p)     1.02553       0.09194
   135    C   27  pz     Val( 2p)     0.99829       0.09736
 
   136    C   28  S      Cor( 1S)     1.99990     -10.95177
   137    C   28  S      Val( 2S)     1.07823      -0.17907
   138    C   28  px     Val( 2p)     0.96231       0.11393
   139    C   28  py     Val( 2p)     0.96800       0.15444
   140    C   28  pz     Val( 2p)     0.97636       0.11138
 
   141    C   29  S      Cor( 1S)     1.99992     -10.94285
   142    C   29  S      Val( 2S)     1.08308      -0.17614
   143    C   29  px     Val( 2p)     0.99285       0.09010
   144    C   29  py     Val( 2p)     0.98656       0.13462
   145    C   29  pz     Val( 2p)     0.99235       0.10560
 
   146    C   30  S      Cor( 1S)     1.99994     -10.94607
   147    C   30  S      Val( 2S)     1.08361      -0.17962
   148    C   30  px     Val( 2p)     0.98453       0.09417
   149    C   30  py     Val( 2p)     0.98497       0.13396
   150    C   30  pz     Val( 2p)     0.97767       0.11174
 
   151    C   31  S      Cor( 1S)     1.99993     -10.93996
   152    C   31  S      Val( 2S)     1.07175      -0.17213
   153    C   31  px     Val( 2p)     1.01789       0.07827
   154    C   31  py     Val( 2p)     0.98572       0.13909
   155    C   31  pz     Val( 2p)     1.01211       0.09899
 
   156    C   32  S      Cor( 1S)     1.99985     -10.98826
   157    C   32  S      Val( 2S)     1.06074      -0.18592
   158    C   32  px     Val( 2p)     0.91648       0.09370
   159    C   32  py     Val( 2p)     0.97755       0.13686
   160    C   32  pz     Val( 2p)     0.93115       0.11150
 
   161    C   33  S      Cor( 1S)     1.99990     -10.94663
   162    C   33  S      Val( 2S)     1.08111      -0.18794
   163    C   33  px     Val( 2p)     0.99625       0.09516
   164    C   33  py     Val( 2p)     0.96047       0.12705
   165    C   33  pz     Val( 2p)     0.99460       0.11446
 
   166    N   34  S      Cor( 1S)     1.99998     -15.27180
   167    N   34  S      Val( 2S)     1.41048      -0.59923
   168    N   34  px     Val( 2p)     1.63033      -0.20753
   169    N   34  py     Val( 2p)     1.10383      -0.00338
   170    N   34  pz     Val( 2p)     1.12912      -0.00347
 
   171    C   35  S      Cor( 1S)     1.99996     -11.01621
   172    C   35  S      Val( 2S)     1.10435      -0.23917
   173    C   35  px     Val( 2p)     0.97720       0.07090
   174    C   35  py     Val( 2p)     0.95919       0.09950
   175    C   35  pz     Val( 2p)     0.94661       0.08794
 
   176    C   36  S      Cor( 1S)     1.99996     -11.05587
   177    C   36  S      Val( 2S)     1.11153      -0.26150
   178    C   36  px     Val( 2p)     0.93957       0.07611
   179    C   36  py     Val( 2p)     0.83139       0.12530
   180    C   36  pz     Val( 2p)     0.94593       0.07490
 
   181    C   37  S      Cor( 1S)     1.99990     -11.03006
   182    C   37  S      Val( 2S)     1.12200      -0.25457
   183    C   37  px     Val( 2p)     1.00944       0.05936
   184    C   37  py     Val( 2p)     0.95360       0.07058
   185    C   37  pz     Val( 2p)     0.85046       0.10556
 
   186    C   38  S      Cor( 1S)     1.99994     -10.98386
   187    C   38  S      Val( 2S)     1.10495      -0.21919
   188    C   38  px     Val( 2p)     0.99373       0.07954
   189    C   38  py     Val( 2p)     0.97933       0.08299
   190    C   38  pz     Val( 2p)     1.00811       0.07902
 
   191    C   39  S      Cor( 1S)     1.99995     -10.98339
   192    C   39  S      Val( 2S)     1.09370      -0.20686
   193    C   39  px     Val( 2p)     1.00767       0.08248
   194    C   39  py     Val( 2p)     0.97633       0.08658
   195    C   39  pz     Val( 2p)     0.99549       0.08289
 
   196    C   40  S      Cor( 1S)     1.99998     -11.01957
   197    C   40  S      Val( 2S)     1.10305      -0.23921
   198    C   40  px     Val( 2p)     0.94762       0.09247
   199    C   40  py     Val( 2p)     0.95156       0.09539
   200    C   40  pz     Val( 2p)     0.94253       0.09427
 
   201    N   41  S      Cor( 1S)     1.99999     -15.41882
   202    N   41  S      Val( 2S)     1.40650      -0.65909
   203    N   41  px     Val( 2p)     1.22982      -0.11531
   204    N   41  py     Val( 2p)     1.13810      -0.08949
   205    N   41  pz     Val( 2p)     1.18533      -0.10570
 
   206    C   42  S      Cor( 1S)     1.99990     -11.03153
   207    C   42  S      Val( 2S)     1.08924      -0.22867
   208    C   42  px     Val( 2p)     0.93293       0.07958
   209    C   42  py     Val( 2p)     0.89677       0.08181
   210    C   42  pz     Val( 2p)     1.03566       0.04798
 
   211    C   43  S      Cor( 1S)     1.99996     -10.98977
   212    C   43  S      Val( 2S)     1.08069      -0.19925
   213    C   43  px     Val( 2p)     1.01661       0.08080
   214    C   43  py     Val( 2p)     0.98770       0.08157
   215    C   43  pz     Val( 2p)     0.98681       0.08613
 
   216    C   44  S      Cor( 1S)     1.99995     -10.98502
   217    C   44  S      Val( 2S)     1.08522      -0.19930
   218    C   44  px     Val( 2p)     1.02153       0.07651
   219    C   44  py     Val( 2p)     0.97712       0.09067
   220    C   44  pz     Val( 2p)     0.98703       0.08920
 
   221    C   45  S      Cor( 1S)     1.99995     -10.99018
   222    C   45  S      Val( 2S)     1.08896      -0.21020
   223    C   45  px     Val( 2p)     0.99903       0.07873
   224    C   45  py     Val( 2p)     1.02641       0.06789
   225    C   45  pz     Val( 2p)     0.98055       0.06448
 
   226    C   46  S      Cor( 1S)     1.99992     -11.02520
   227    C   46  S      Val( 2S)     1.09673      -0.23055
   228    C   46  px     Val( 2p)     0.98519       0.06592
   229    C   46  py     Val( 2p)     0.89802       0.07595
   230    C   46  pz     Val( 2p)     0.98182       0.06985
 
   231    C   47  S      Cor( 1S)     1.99992     -10.99417
   232    C   47  S      Val( 2S)     1.10114      -0.22296
   233    C   47  px     Val( 2p)     0.98932       0.07530
   234    C   47  py     Val( 2p)     0.96537       0.07874
   235    C   47  pz     Val( 2p)     1.01814       0.06809
 
   236    C   48  S      Cor( 1S)     1.99994     -11.01551
[...]
                         Standard Origin              Atomic Origin
 NLMO      Total    Paramagnetic  Diamagnetic   Paramagnetic  Diamagnetic
   98      -0.1608        0.6428      -0.8037        -1.0323       0.8715
  102       0.5893        3.1379      -2.5486        -0.3587       0.9480
  104      -0.0117        0.3874      -0.3992        -1.0315       1.0197
  105       1.1032        1.2119      -0.1087         0.0394       1.0638
  106       2.1413        3.2711      -1.1298         0.3025       1.8388
  107      26.4424       -0.5419      26.9843         0.6345      25.8079
  109      -0.1390        1.4441      -1.5831        -1.2861       1.1471
 Sum       29.9646        9.5534      20.4112        -2.7323      32.6970

 Contributions to Isotropic shielding for atom   96 (    31.7567 ppm):
                         Standard Origin              Atomic Origin
 NLMO      Total    Paramagnetic  Diamagnetic   Paramagnetic  Diamagnetic
   95      -0.1728        0.5160      -0.6888        -1.0173       0.8445
   97       2.1820       -2.0904       4.2724         1.3034       0.8786
  102       0.3763       -0.9609       1.3372         0.1899       0.1864
  105       1.1156        0.6461       0.4694         0.0676       1.0480
  106      -0.0769       -2.5461       2.4691        -1.2905       1.2136
  108      25.8103        0.5450      25.2652         0.2108      25.5994
  109       1.8498        1.1191       0.7307         0.0197       1.8301
 Sum       31.0842       -2.7710      33.8552        -0.5164      31.6007

 Contributions to Isotropic shielding for atom   97 (    32.2435 ppm):
                         Standard Origin              Atomic Origin
 NLMO      Total    Paramagnetic  Diamagnetic   Paramagnetic  Diamagnetic
   97       1.2994        0.3204       0.9790         0.4972       0.8022
   98      -0.2615        1.0893      -1.3508        -1.2430       0.9815
  105       0.3988        3.6400      -3.2412        -0.5882       0.9870
  107      -0.0528       -1.5049       1.4521        -1.2310       1.1783
  108       2.4350        0.4354       1.9996         0.6446       1.7904
  109      26.3433       -0.2548      26.5981         0.4827      25.8606
  117      -0.0455       -1.2202       1.1747        -0.8897       0.8442
 Sum       30.1168        2.5053      27.6115        -2.3274      32.4442

 Contributions to Isotropic shielding for atom   98 (    32.7847 ppm):
                         Standard Origin              Atomic Origin
 NLMO      Total    Paramagnetic  Diamagnetic   Paramagnetic  Diamagnetic
   71      -0.8629        0.4054      -1.2683        -1.7822       0.9193
   80      -0.0412        1.3200      -1.3612        -0.9803       0.9392
   85       1.8280       -1.4925       3.3205         1.1468       0.6812
   89      -0.1189        0.2222      -0.3411        -1.0596       0.9407
  110       0.8232        1.5440      -0.7208         0.1248       0.6984
  111      25.9588        0.1300      25.8287         0.5752      25.3836
  112       1.7752        3.3701      -1.5949         0.0084       1.7668
  114       0.1274       -0.2630       0.3903        -0.8880       1.0153
  121       0.0319       -1.0655       1.0973        -0.8282       0.8600
  125       0.0248       -1.0671       1.0919        -0.3145       0.3393
 Sum       29.5462        3.1037      26.4425        -3.9975      33.5437

 Contributions to Isotropic shielding for atom   99 (    32.5227 ppm):
                         Standard Origin              Atomic Origin
 NLMO      Total    Paramagnetic  Diamagnetic   Paramagnetic  Diamagnetic
   83      -0.3364        1.1410      -1.4774        -0.7899       0.4535
   85       1.3947       -1.0349       2.4296         0.6652       0.7295
   87      -0.2290       -0.1837      -0.0453        -1.0978       0.8688
   89      -0.3616        0.4433      -0.8049        -1.2661       0.9045
  104      -0.1548       -1.8181       1.6633        -0.3409       0.1861
  110       0.6821        2.0799      -1.3978        -0.1473       0.8294
  111       1.7891        3.1882      -1.3991        -0.1226       1.9116
  112      26.1776       -0.3404      26.5180         0.5334      25.6442
  115      -0.0637       -0.0154      -0.0483        -1.0081       0.9444
  116      -0.2315       -1.1838       0.9523        -0.7620       0.5305
  120       1.2084       -1.0381       2.2464         0.3850       0.8233
  121       0.0674       -3.4829       3.5503        -1.1680       1.2354
  125       0.0568       -1.1616       1.2184        -0.4844       0.5412
  191      -0.7722        1.5510      -2.3232         0.1976      -0.9698
 Sum       29.2269       -1.8555      31.0824        -5.4058      34.6327

 Contributions to Isotropic shielding for atom  100 (    31.1273 ppm):
                         Standard Origin              Atomic Origin
 NLMO      Total    Paramagnetic  Diamagnetic   Paramagnetic  Diamagnetic
   71      -0.2109        0.0742      -0.2851        -1.0817       0.8708
   84      -0.1932        0.4514      -0.6446        -1.0128       0.8196
   99      -0.6900        1.0137      -1.7038        -1.9615       1.2714
  100       0.1957        1.1743      -0.9786        -0.5291       0.7249
  110      -0.0600        1.3623      -1.4223        -0.9328       0.8727
  112       0.0379        0.2704      -0.2325        -1.0363       1.0742
  113      26.4186        0.0134      26.4052         1.1348      25.2838
  114       1.7182        1.1987       0.5195        -0.1540       1.8722
  195       0.3251       -0.7586       1.0837         0.7446      -0.4195
 Sum       27.5414        4.7998      22.7416        -4.8289      32.3702

 Contributions to Isotropic shielding for atom  101 (    30.2766 ppm):
                         Standard Origin              Atomic Origin
 NLMO      Total    Paramagnetic  Diamagnetic   Paramagnetic  Diamagnetic
   71      -0.4711        0.1030      -0.5741        -1.6958       1.2246
   84      -0.2304        0.4912      -0.7216        -1.0600       0.8296
   99      -0.5223        0.5658      -1.0881        -0.6019       0.0796
  100       2.2053       -1.7216       3.9269         1.2515       0.9538
  101      -0.0670       -0.0299      -0.0371        -1.0416       0.9746
  110       0.8300       -1.3283       2.1582        -0.0298       0.8598
  113       0.8709        1.9139      -1.0430        -1.0043       1.8753
  114      25.5641        0.7954      24.7686         0.7543      24.8098
  195       0.2532       -0.0310       0.2842         1.0676      -0.8145
 Sum       28.4326        0.7586      27.6740        -2.3600      30.7926

 Contributions to Isotropic shielding for atom  102 (    31.4715 ppm):
                         Standard Origin              Atomic Origin
 NLMO      Total    Paramagnetic  Diamagnetic   Paramagnetic  Diamagnetic
   83      -0.2004        0.4289      -0.6293        -1.0158       0.8154
   87       0.2967       -0.7809       1.0776        -0.0146       0.3113
   89      -0.4440        0.6273      -1.0713        -1.0723       0.6283
   97      -0.2576        1.2744      -1.5320        -0.9031       0.6455
   98       1.5775       -0.4142       1.9917         0.6180       0.9595
  104      -0.4646       -2.4046       1.9399        -0.5928       0.1282
  112      -0.2598       -1.5321       1.2723        -0.3223       0.0625
  115       0.4879        2.1561      -1.6683        -0.4051       0.8930
  116      26.3620       -0.2704      26.6324         0.6861      25.6760
  117       1.6029        3.6122      -2.0092        -0.3015       1.9044
  118      -0.2791        0.4207      -0.6997        -1.3444       1.0653
  120       0.4456       -1.6198       2.0654        -0.4320       0.8776
  121       0.5908       -2.3992       2.9901        -1.1215       1.7123
  191      -0.6999        1.0345      -1.7343         0.1888      -0.8887
 Sum       28.7581        0.1329      28.6252        -6.0324      34.7905

 Contributions to Isotropic shielding for atom  103 (    32.0329 ppm):
                         Standard Origin              Atomic Origin
 NLMO      Total    Paramagnetic  Diamagnetic   Paramagnetic  Diamagnetic
   87       0.3968       -0.8204       1.2172         0.2150       0.1819
   94      -0.1032        1.0621      -1.1653        -0.9464       0.8433
   97      -0.2360        1.3382      -1.5742        -1.0117       0.7757
   98       1.8793       -0.5468       2.4261         0.8544       1.0249
  115       0.6696        1.9014      -1.2318        -0.3943       1.0639
  116       1.5474        3.3850      -1.8376        -0.3516       1.8989
  117      26.4388       -0.2489      26.6878         0.6188      25.8200
  118      -0.0869        1.0670      -1.1539        -0.4550       0.3680
  119      -0.1785       -0.3024       0.1239        -1.3212       1.1427
  121       0.2201       -0.8646       1.0847        -0.8473       1.0674
 Sum       30.5474        5.9706      24.5769        -3.6393      34.1868

 Contributions to Isotropic shielding for atom  104 (    31.1633 ppm):
                         Standard Origin              Atomic Origin
 NLMO      Total    Paramagnetic  Diamagnetic   Paramagnetic  Diamagnetic
   81      -0.3394        0.9917      -1.3311        -0.9837       0.6443
   86      -0.3781        1.3333      -1.7113        -1.5269       1.1488
   87       2.3109       -1.2841       3.5950         1.3638       0.9471
   91      -0.1120        0.9581      -1.0701        -0.8804       0.7683
   98       0.3390       -1.0001       1.3391         0.0794       0.2596
  115       1.3221        0.8633       0.4588         0.1413       1.1808
  117      -0.2034       -0.5123       0.3090        -1.3577       1.1543
  118       0.1906        4.1828      -3.9922        -0.7564       0.9470
  119      25.8799       -0.3613      26.2412         0.3574      25.5225
  122       1.0906       -2.4424       3.5330        -0.5587       1.6494
  125       0.1486       -0.8525       1.0011        -0.2959       0.4445
  126       0.1623       -0.8636       1.0259        -0.4774       0.6397
  127      -0.2351       -1.5594       1.3243        -0.6506       0.4156
  193      -0.8323        0.5638      -1.3961         0.1422      -0.9745
  194      -0.1877       -1.1336       0.9459        -0.7381       0.5503
 Sum       29.1561       -1.1163      30.2724        -6.1417      35.2977

 Contributions to Isotropic shielding for atom  105 (    30.4923 ppm):
                         Standard Origin              Atomic Origin
 NLMO      Total    Paramagnetic  Diamagnetic   Paramagnetic  Diamagnetic
  120      -0.6400        0.2967      -0.9366        -1.2680       0.6281
  121      -0.1166        0.9983      -1.1149        -1.1449       1.0283
  122      -0.6761        0.5186      -1.1947        -0.7107       0.0346
  123       1.4239       -0.6536       2.0775        -0.6528       2.0767
  124      25.9616        0.4019      25.5596         0.7789      25.1827
  125       1.1572        1.3687      -0.2115        -0.8385       1.9957
  126       0.5474        3.5710      -3.0237        -1.4376       1.9850
  193       1.0344       -0.7462       1.7806         1.5051      -0.4707
  194       1.0060        0.5179       0.4881         0.7501       0.2559
 Sum       29.6978        6.2734      23.4245        -3.0185      32.7163

 Contributions to Isotropic shielding for atom  106 (    30.5895 ppm):
                         Standard Origin              Atomic Origin
 NLMO      Total    Paramagnetic  Diamagnetic   Paramagnetic  Diamagnetic
  120      -0.9506        0.6176      -1.5682        -1.8507       0.9001
  121      -0.3671        1.3211      -1.6881        -1.9006       1.5335
  122      -1.6632        1.7298      -3.3930        -2.5108       0.8476
  123       2.6353       -4.2460       6.8813         1.2199       1.4154
  124       1.4870        2.0156      -0.5287        -0.5571       2.0441
  125      26.2424        0.9464      25.2960         1.0822      25.1602
  126       0.9530        2.4238      -1.4708        -0.9214       1.8744
  191       0.3390       -1.0801       1.4191         1.1106      -0.7716
  193       0.9959       -0.3764       1.3723         1.0433      -0.0474
 Sum       29.6717        3.3517      26.3199        -3.2845      32.9562

 Contributions to Isotropic shielding for atom  107 (    30.5385 ppm):
                         Standard Origin              Atomic Origin
 NLMO      Total    Paramagnetic  Diamagnetic   Paramagnetic  Diamagnetic
  120      -1.2184        0.8015      -2.0199        -2.1219       0.9036
  121      -0.5380        1.9945      -2.5325        -2.0822       1.5442
  122      -2.1687        1.7060      -3.8747        -2.9490       0.7804
  123       1.4156       -0.0748       1.4904        -0.0507       1.4663
  124       1.2309        4.2323      -3.0014        -0.8107       2.0416
  125       1.1911        1.9525      -0.7614        -0.6809       1.8720
  126      26.5470        0.6637      25.8832         1.3143      25.2327
  191       0.5607       -1.5771       2.1378         1.3398      -0.7792
  192       0.8423        0.9069      -0.0646         1.0633      -0.2210
  193       1.5469       -1.4058       2.9528         1.6073      -0.0603
  194       0.4351        1.2356      -0.8005        -0.0371       0.4722
 Sum       29.8446       10.4353      19.4092        -3.4079      33.2524

 Contributions to Isotropic shielding for atom  108 (    30.9031 ppm):
                         Standard Origin              Atomic Origin
 NLMO      Total    Paramagnetic  Diamagnetic   Paramagnetic  Diamagnetic
   76      -0.3391       -0.1225      -0.2166        -1.1994       0.8602
   81      -0.3453        0.5551      -0.9004        -1.1062       0.7610
   82       1.0393        0.3819       0.6574        -0.1468       1.1861
   87      -0.1476        0.5971      -0.7447        -1.0258       0.8782
  122       1.1287       -1.1352       2.2639         0.5756       0.5531
  124       0.0749       -1.4386       1.5135        -0.6587       0.7336
  127      25.9910        0.2544      25.7366         0.6603      25.3308
  128       1.5057        3.3882      -1.8825        -0.4756       1.9813
  129       1.9021        0.0683       1.8338         0.0628       1.8393
  193      -1.0850        0.7180      -1.8030         0.2528      -1.3377
 Sum       29.7246        3.2666      26.4580        -3.0612      32.7858

 Contributions to Isotropic shielding for atom  109 (    30.7516 ppm):
                         Standard Origin              Atomic Origin
 NLMO      Total    Paramagnetic  Diamagnetic   Paramagnetic  Diamagnetic
   75      -0.4986        0.3891      -0.8877        -1.2138       0.7151
   76      -0.6384        0.0641      -0.7025        -1.9916       1.3532
   82       1.0086        0.9825       0.0262        -0.2577       1.2663
  122       0.6665       -0.5048       1.1713         0.3976       0.2690
  124       0.0088       -1.3440       1.3528        -0.6160       0.6247
  127       1.5626        3.3488      -1.7862        -0.4071       1.9697
  128      26.0644        0.1542      25.9103         0.7065      25.3580
  129       1.8566        0.4627       1.3939         0.0625       1.7940
 Sum       30.0305        3.5526      26.4780        -3.3195      33.3501

 Contributions to Isotropic shielding for atom  110 (    31.9728 ppm):
                         Standard Origin              Atomic Origin
 NLMO      Total    Paramagnetic  Diamagnetic   Paramagnetic  Diamagnetic
   76      -0.4490       -0.3651      -0.0839        -1.6648       1.2158
   82       1.8999       -2.7857       4.6856         1.1382       0.7616
   86      -0.1083        0.2589      -0.3672        -1.1373       1.0290
  122       0.5382       -0.6062       1.1444        -0.0189       0.5571
  127       1.8382        0.7326       1.1056        -0.0841       1.9223
  128       1.8325        1.3927       0.4398        -0.0596       1.8921
  129      26.2869        0.8273      25.4596         0.6097      25.6773
 Sum       31.8384       -0.5455      32.3839        -1.2168      33.0553
 
 1\1\GINC-PCSN02\SP\RHF\STO-3G\C45H56N4O5\ABENIDD\30-May-2024\0\\# nmr=
 giao hf/sto-3g pop=nbo geom=connectivity\\pleiokomenine_C_1a\\0,1\C,0,
 0.,0.,0.\C,0,1.4022,0.,0.\C,0,2.086,1.2337,0.\C,0,1.3922,2.4538,0.0049
 \C,0,0.0081,2.4409,0.0046\C,0,-0.6699,1.2123,0.0275\N,0,-0.8853,3.5459
 ,-0.025\C,0,-2.1485,1.4714,0.157\C,0,-2.1555,2.9163,-0.4766\C,0,-3.161
 6,0.5848,-0.5803\C,0,-2.1383,2.7805,-2.0615\C,0,-3.385,2.0452,-2.5709\
 C,0,-4.17,1.4906,-1.3657\N,0,-3.7421,-0.2655,0.4626\C,0,-4.9622,-0.960
 1,0.081\C,0,-5.9967,-0.0992,-0.6433\C,0,-5.3734,0.6519,-1.8201\C,0,-2.
 4907,1.2871,1.6564\C,0,-3.7913,0.4955,1.6994\C,0,-4.6445,2.7505,-0.563
 7\C,0,-3.4589,3.6775,-0.177\C,0,-3.6117,4.2566,1.2184\O,0,-4.3758,3.83
 34,2.0772\O,0,-2.8379,5.3687,1.3653\C,0,-2.896,5.9545,2.6654\C,0,-0.38
 97,4.7681,-0.6382\C,0,2.17,-1.3075,-0.001\C,0,1.7708,-2.2361,1.1274\C,
 0,0.7886,-3.2126,0.914\C,0,2.3124,-2.0666,2.4174\C,0,1.8556,-2.8276,3.
 5006\C,0,0.8342,-3.7399,3.2951\C,0,0.3355,-3.9486,1.9974\N,0,0.1357,-4
 .5073,4.27\C,0,-0.7255,-5.0174,2.0552\C,0,-1.1317,-4.8305,3.5685\C,0,-
 1.9713,-4.8906,1.1802\C,0,-2.1354,-3.6,3.6734\C,0,-3.4281,-3.8746,2.88
 82\C,0,-3.244,-5.1524,2.036\N,0,-1.7805,-5.7987,-0.0426\C,0,-2.7802,-6
 .9275,-0.0929\C,0,-4.2226,-6.4656,0.0645\C,0,-4.4428,-5.3726,1.1116\C,
 0,-0.0948,-6.3349,1.5894\C,0,-0.3767,-6.3476,0.098\C,0,-3.0779,-6.3131
 ,3.0795\C,0,-1.9473,-6.0184,4.111\C,0,-1.173,-7.2663,4.509\O,0,-1.2186
 ,-8.3371,3.9159\O,0,-0.4894,-7.0651,5.6687\C,0,0.282,-8.1863,6.0998\C,
 0,0.1222,-3.9625,5.6219\O,0,-1.8754,-5.0708,-1.2021\H,0,-0.5678,-0.925
 7,0.0164\H,0,3.1737,1.2523,0.0014\H,0,1.9467,3.3849,0.0106\H,0,-2.6548
 ,-0.0794,-1.2937\H,0,-2.0936,3.7707,-2.533\H,0,-1.2445,2.2514,-2.4148\
 H,0,-4.0095,2.73,-3.1585\H,0,-3.0844,1.2412,-3.2542\H,0,-4.6791,-1.786
 3,-0.5843\H,0,-5.4217,-1.4362,0.9558\H,0,-6.8046,-0.7412,-1.0137\H,0,-
 6.4582,0.6037,0.0588\H,0,-5.0547,-0.0783,-2.5754\H,0,-6.1308,1.2848,-2
 .2977\H,0,-1.7276,0.6799,2.1652\H,0,-2.5381,2.2147,2.2258\H,0,-3.8139,
 -0.1655,2.5726\H,0,-4.6594,1.1529,1.7669\H,0,-5.335,3.3329,-1.1907\H,0
 ,-5.2435,2.467,0.3019\H,0,-3.5242,4.5551,-0.8386\H,0,-3.9031,6.3307,2.
 8696\H,0,-2.5885,5.232,3.4281\H,0,-2.1999,6.7975,2.6883\H,0,0.0393,4.5
 867,-1.6302\H,0,0.3749,5.2308,-0.005\H,0,-1.1958,5.4996,-0.751\H,0,2.0
 193,-1.8022,-0.9693\H,0,3.249,-1.1183,0.068\H,0,0.3531,-3.3513,-0.0735
 \H,0,3.072,-1.3069,2.5899\H,0,2.2748,-2.6587,4.4855\H,0,-2.0366,-3.881
 7,0.7469\H,0,-2.393,-3.3959,4.7205\H,0,-1.6824,-2.6731,3.2997\H,0,-3.6
 648,-3.0064,2.2613\H,0,-4.2706,-3.9909,3.5817\H,0,-2.6408,-7.4143,-1.0
 663\H,0,-2.4964,-7.6542,0.6703\H,0,-4.5945,-6.1001,-0.901\H,0,-4.8419,
 -7.3372,0.3092\H,0,-4.659,-4.4368,0.5778\H,0,-5.3472,-5.5945,1.6916\H,
 0,0.9764,-6.4267,1.7979\H,0,-0.5843,-7.2077,2.0099\H,0,-0.3361,-7.3448
 ,-0.3503\H,0,0.2903,-5.6804,-0.4569\H,0,-2.9264,-7.2741,2.5893\H,0,-4.
 0191,-6.4331,3.6346\H,0,-2.451,-5.7155,5.0421\H,0,0.8276,-7.895,7.0016
 \H,0,1.0091,-8.4716,5.3329\H,0,-0.3731,-9.0273,6.3468\H,0,-0.5772,-4.5
 147,6.2568\H,0,1.1125,-4.0561,6.0803\H,0,-0.1755,-2.9078,5.6394\\Versi
 on=ES64L-G16RevB.01\State=1-A\HF=-2300.2200116\RMSD=3.494e-09\Dipole=-
 0.3656409,0.200119,1.2949389\Quadrupole=-3.5193462,8.7379253,-5.218579
 ,1.046331,2.9395259,-14.530477\PG=C01 [X(C45H56N4O5)]\\@


 THE UNDERLYING PHYSICAL LAWS NECESSARY FOR THE 
 MATHEMATICAL THEORY OF A LARGE PART OF PHYSICS AND THE
 WHOLE OF CHEMISTRY ARE THUS COMPLETELY KNOWN, AND THE
 DIFFICULTY IS ONLY THAT THE EXACT APPLICATION OF THESE
 LAWS LEADS TO EQUATIONS MUCH TOO COMPLICATED 
 TO BE SOLUBLE.

                                        -- P. A. M. DIRAC, 1929
 Job cpu time:       0 days  0 hours 11 minutes 44.2 seconds.
 Elapsed time:       0 days  0 hours  1 minutes 58.3 seconds.
 File lengths (MBytes):  RWF=     67 Int=      0 D2E=      0 Chk=     10 Scr=      1
 Normal termination of Gaussian 16 at Thu May 30 08:53:10 2024.
