 Entering Gaussian System, Link 0=g16
 Input=1_pleiokomenine_1a_c_4.gjf
 Output=1_pleiokomenine_1a_c_4.log
 Initial command:
 /opt/gaussian/g16/l1.exe "/data/abenidd/Elvis/pleiokomenine_C/NMR_HF/1a/1_pleiokomenine_1a_c_4/Gau-26023.inp" -scrdir="/data/abenidd/Elvis/pleiokomenine_C/NMR_HF/1a/1_pleiokomenine_1a_c_4/"
 Entering Link 1 = /opt/gaussian/g16/l1.exe PID=     26025.
  
 Copyright (c) 1988-2017, Gaussian, Inc.  All Rights Reserved.
  
 This is part of the Gaussian(R) 16 program.  It is based on
 the Gaussian(R) 09 system (copyright 2009, Gaussian, Inc.),
 the Gaussian(R) 03 system (copyright 2003, Gaussian, Inc.),
 the Gaussian(R) 98 system (copyright 1998, Gaussian, Inc.),
 the Gaussian(R) 94 system (copyright 1995, Gaussian, Inc.),
 the Gaussian 92(TM) system (copyright 1992, Gaussian, Inc.),
 the Gaussian 90(TM) system (copyright 1990, Gaussian, Inc.),
 the Gaussian 88(TM) system (copyright 1988, Gaussian, Inc.),
 the Gaussian 86(TM) system (copyright 1986, Carnegie Mellon
 University), and the Gaussian 82(TM) system (copyright 1983,
 Carnegie Mellon University). Gaussian is a federally registered
 trademark of Gaussian, Inc.
  
 This software contains proprietary and confidential information,
 including trade secrets, belonging to Gaussian, Inc.
  
 This software is provided under written license and may be
 used, copied, transmitted, or stored only in accord with that
 written license.
  
 The following legend is applicable only to US Government
 contracts under FAR:
  
                    RESTRICTED RIGHTS LEGEND
  
 Use, reproduction and disclosure by the US Government is
 subject to restrictions as set forth in subparagraphs (a)
 and (c) of the Commercial Computer Software - Restricted
 Rights clause in FAR 52.227-19.
  
 Gaussian, Inc.
 340 Quinnipiac St., Bldg. 40, Wallingford CT 06492
  
  
 ---------------------------------------------------------------
 Warning -- This program may not be used in any manner that
 competes with the business of Gaussian, Inc. or will provide
 assistance to any competitor of Gaussian, Inc.  The licensee
 of this program is prohibited from giving any competitor of
 Gaussian, Inc. access to this program.  By using this program,
 the user acknowledges that Gaussian, Inc. is engaged in the
 business of creating and licensing software in the field of
 computational chemistry and represents and warrants to the
 licensee that it is not a competitor of Gaussian, Inc. and that
 it will not use this program in any manner prohibited above.
 ---------------------------------------------------------------
  

 Cite this work as:
 Gaussian 16, Revision B.01,
 M. J. Frisch, G. W. Trucks, H. B. Schlegel, G. E. Scuseria, 
 M. A. Robb, J. R. Cheeseman, G. Scalmani, V. Barone, 
 G. A. Petersson, H. Nakatsuji, X. Li, M. Caricato, A. V. Marenich, 
 J. Bloino, B. G. Janesko, R. Gomperts, B. Mennucci, H. P. Hratchian, 
 J. V. Ortiz, A. F. Izmaylov, J. L. Sonnenberg, D. Williams-Young, 
 F. Ding, F. Lipparini, F. Egidi, J. Goings, B. Peng, A. Petrone, 
 T. Henderson, D. Ranasinghe, V. G. Zakrzewski, J. Gao, N. Rega, 
 G. Zheng, W. Liang, M. Hada, M. Ehara, K. Toyota, R. Fukuda, 
 J. Hasegawa, M. Ishida, T. Nakajima, Y. Honda, O. Kitao, H. Nakai, 
 T. Vreven, K. Throssell, J. A. Montgomery, Jr., J. E. Peralta, 
 F. Ogliaro, M. J. Bearpark, J. J. Heyd, E. N. Brothers, K. N. Kudin, 
 V. N. Staroverov, T. A. Keith, R. Kobayashi, J. Normand, 
 K. Raghavachari, A. P. Rendell, J. C. Burant, S. S. Iyengar, 
 J. Tomasi, M. Cossi, J. M. Millam, M. Klene, C. Adamo, R. Cammi, 
 J. W. Ochterski, R. L. Martin, K. Morokuma, O. Farkas, 
 J. B. Foresman, and D. J. Fox, Gaussian, Inc., Wallingford CT, 2016.
 
 ******************************************
 Gaussian 16:  ES64L-G16RevB.01 20-Dec-2017
                30-May-2024 
 ******************************************
 %nprocshared=8
 Will use up to    8 processors via shared memory.
 ----------------------------------------------
 # nmr=giao hf/sto-3g pop=nbo geom=connectivity
 ----------------------------------------------
 1/38=1,57=2,172=1/1;
 2/12=2,17=6,18=5,40=1/2;
 3/6=3,11=9,25=1,30=1/1,2,3,8;
 4//1;
 5/5=2,38=5/2;
 8/6=1,10=90,11=11/1;
 10/13=100,45=16/2;
 6/7=2,8=2,9=2,10=2,28=1,40=1,64=1/1,7;
 99/9=1/99;
 ------------------
 pleiokomenine_C_1a
 ------------------
 Symbolic Z-matrix:
 Charge =  0 Multiplicity = 1
 C                     0.        0.        0. 
 C                     1.4004    0.        0. 
 C                     2.0938    1.2283    0. 
 C                     1.4081    2.4501   -0.0328 
 C                     0.0251    2.44     -0.0938 
 C                    -0.6628    1.2153   -0.0499 
 N                    -0.8574    3.5468   -0.2471 
 C                    -2.145     1.4855   -0.0685 
 C                    -2.0814    2.8897   -0.7845 
 C                    -3.0943    0.5608   -0.8454 
 C                    -1.9116    2.6601   -2.3511 
 C                    -3.1084    1.8991   -2.9351 
 C                    -4.011     1.4202   -1.7817 
 N                    -3.7886   -0.212     0.1903 
 C                    -4.9745   -0.9206   -0.2629 
 C                    -5.9196   -0.1072   -1.1467 
 C                    -5.1707    0.5585   -2.3014 
 C                    -2.6263    1.3951    1.3996 
 C                    -3.9411    0.6264    1.3662 
 C                    -4.5514    2.7277   -1.1084 
 C                    -3.4018    3.6704   -0.6588 
 C                    -3.6861    4.3291    0.6796 
 O                    -4.5361    3.9609    1.4811 
 O                    -2.9205    5.4455    0.8396 
 C                    -3.0976    6.1012    2.0945 
 C                    -0.303     4.7307   -0.8856 
 C                     2.1536   -1.3094   -0.0773 
 C                     2.561    -1.6814   -1.4885 
 C                     1.5845   -1.892    -2.4739 
 C                     3.9223   -1.7975   -1.8336 
 C                     4.3155   -2.1206   -3.1391 
 C                     3.3431   -2.333    -4.1022 
 C                     1.9865   -2.1945   -3.7656 
 N                     3.5244   -2.6972   -5.4625 
 C                     1.1514   -2.3443   -5.014 
 C                     2.1873   -3.217    -5.8343 
 C                    -0.2027   -3.0748   -4.9781 
 C                     2.0595   -4.7319   -5.3635 
 C                     0.6574   -5.2875   -5.6518 
 C                    -0.2497   -4.1348   -6.1312 
 N                    -1.2566   -1.9814   -5.0464 
 C                    -2.6112   -2.4647   -5.493 
 C                    -2.6132   -3.445    -6.6494 
 C                    -1.6845   -4.6189   -6.3623 
 C                     0.813    -0.9085   -5.4947 
 C                    -0.6509   -0.9251   -5.9146 
 C                     0.3816   -3.6597   -7.4849 
 C                     1.8699   -3.2585   -7.3369 
 C                     2.2088   -2.0193   -8.1463 
 O                     1.3834   -1.2219   -8.5755 
 O                     3.5454   -1.9511   -8.3933 
 C                     3.9501   -0.7873   -9.1141 
 C                     4.7405   -3.4288   -5.7844 
 O                    -1.4479   -1.4465   -3.7809 
 H                    -0.5644   -0.9286    0.0032 
 H                     3.1814    1.2349   -0.0036 
 H                     1.9675    3.3776   -0.0472 
 H                    -2.5316   -0.1534   -1.4604 
 H                    -1.8145    3.6208   -2.8729 
 H                    -0.9924    2.1092   -2.5863 
 H                    -3.6669    2.5496   -3.6201 
 H                    -2.7508    1.0564   -3.5385 
 H                    -4.6388   -1.7933   -0.8383 
 H                    -5.526    -1.3309    0.5918 
 H                    -6.6925   -0.7696   -1.5539 
 H                    -6.4428    0.6439   -0.5449 
 H                    -4.7844   -0.2226   -2.9693 
 H                    -5.8678    1.1612   -2.8955 
 H                    -2.7076    2.3558    1.9077 
 H                    -1.9237    0.8077    2.0088 
 H                    -4.06      0.0236    2.2729 
 H                    -4.7988    1.2978    1.3082 
 H                    -5.1687    3.2743   -1.8361 
 H                    -5.2385    2.5003   -0.2932 
 H                    -3.3937    4.5091   -1.372 
 H                    -2.3973    6.9398    2.1401 
 H                    -4.1154    6.4943    2.1791 
 H                    -2.8739    5.4195    2.9212 
 H                     0.2055    4.4938   -1.8271 
 H                     0.4098    5.226    -0.2175 
 H                    -1.0909    5.4575   -1.1056 
 H                     1.5444   -2.1226    0.3386 
 H                     3.0355   -1.2479    0.5734 
 H                     0.5278   -1.7747   -2.2462 
 H                     4.6901   -1.6256   -1.0825 
 H                     5.3704   -2.1942   -3.3759 
 H                    -0.3859   -3.5693   -4.0139 
 H                     2.8011   -5.359    -5.8749 
 H                     2.2737   -4.8442   -4.2934 
 H                     0.255    -5.7617   -4.7479 
 H                     0.7176   -6.0771   -6.4115 
 H                    -3.0541   -2.9452   -4.6107 
 H                    -3.1979   -1.5678   -5.7221 
 H                    -3.6324   -3.8205   -6.7983 
 H                    -2.336    -2.9408   -7.5797 
 H                    -2.0471   -5.1569   -5.4767 
 H                    -1.7238   -5.3304   -7.1959 
 H                     0.8968   -0.1881   -4.6681 
 H                     1.4752   -0.5155   -6.2647 
 H                    -0.8042   -1.2016   -6.9554 
 H                    -1.1654    0.0201   -5.7121 
 H                    -0.2094   -2.8687   -7.9451 
 H                     0.3294   -4.4855   -8.2096 
 H                     2.4574   -4.0598   -7.8108 
 H                     5.0396   -0.8072   -9.205 
 H                     3.6649    0.1201   -8.5723 
 H                     3.5177   -0.7921   -10.1193 
 H                     4.713    -3.7923   -6.8162 
 H                     5.6146   -2.774    -5.7009 
 H                     4.8859   -4.2944   -5.1283 
 
 Stoichiometry    C45H56N4O5
 Framework group  C1[X(C45H56N4O5)]
 Deg. of freedom   324
 Full point group                 C1      NOp   1
 Largest Abelian subgroup         C1      NOp   1
 Largest concise Abelian subgroup C1      NOp   1
                         Standard orientation:                         
 ---------------------------------------------------------------------
 Center     Atomic      Atomic             Coordinates (Angstroms)
 Number     Number       Type             X           Y           Z
 ---------------------------------------------------------------------
      1          6           0       -1.852465   -1.639332   -1.707142
      2          6           0       -1.164891   -2.859263   -1.695656
      3          6           0       -1.529531   -3.851970   -0.762332
      4          6           0       -2.546061   -3.628928    0.176271
      5          6           0       -3.179321   -2.398053    0.197280
      6          6           0       -2.842815   -1.427761   -0.762053
      7          7           0       -4.147499   -1.921935    1.126396
      8          6           0       -3.713466   -0.215085   -0.557959
      9          6           0       -4.019106   -0.445949    0.972324
     10          6           0       -3.139644    1.196210   -0.754902
     11          6           0       -2.777345    0.067057    1.827098
     12          6           0       -2.545418    1.569722    1.625324
     13          6           0       -3.469497    2.074428    0.500285
     14          7           0       -3.715614    1.656655   -2.023049
     15          6           0       -3.594127    3.084128   -2.270889
     16          6           0       -3.945922    3.981928   -1.085084
     17          6           0       -3.203685    3.552494    0.180621
     18          6           0       -4.859930   -0.318490   -1.592399
     19          6           0       -5.042327    1.082650   -2.161830
     20          6           0       -4.926590    1.878631    1.042010
     21          6           0       -5.197921    0.410056    1.468709
     22          6           0       -6.592679   -0.053292    1.086628
     23          8           0       -7.323878    0.502706    0.276265
     24          8           0       -6.962483   -1.133569    1.831168
     25          6           0       -8.248167   -1.657998    1.502428
     26          6           0       -4.136489   -2.539743    2.443534
     27          6           0        0.007214   -3.072043   -2.627701
     28          6           0        1.345542   -2.779313   -1.980373
     29          6           0        1.632721   -1.491989   -1.501582
     30          6           0        2.306707   -3.798858   -1.830704
     31          6           0        3.540727   -3.548922   -1.215841
     32          6           0        3.816340   -2.272973   -0.752991
     33          6           0        2.850193   -1.261419   -0.880134
     34          7           0        5.005824   -1.804862   -0.134988
     35          6           0        3.344240   -0.017752   -0.181889
     36          6           0        4.891354   -0.335981   -0.294834
     37          6           0        3.075207    1.379513   -0.768214
     38          6           0        5.389697    0.077912   -1.748537
     39          6           0        5.209146    1.583389   -1.990680
     40          6           0        4.416235    2.188867   -0.813369
     41          7           0        1.974866    1.977265    0.093666
     42          6           0        1.879868    3.477929    0.010268
     43          6           0        3.199402    4.224102    0.027835
     44          6           0        4.141102    3.678726   -1.039272
     45          6           0        2.668894    0.003222    1.214741
     46          6           0        2.234833    1.441398    1.465408
     47          6           0        5.340549    1.996915    0.437855
     48          6           0        5.743992    0.517887    0.656055
     49          6           0        5.729442    0.134484    2.125200
     50          8           0        5.147703    0.762365    3.001949
     51          8           0        6.508400   -0.958699    2.349557
     52          6           0        6.511379   -1.408834    3.704229
     53          6           0        6.233814   -2.511870   -0.466554
     54          8           0        0.744607    1.499449   -0.333369
     55          1           0       -1.598624   -0.855035   -2.415166
     56          1           0       -0.996967   -4.800147   -0.746067
     57          1           0       -2.794387   -4.404315    0.890764
     58          1           0       -2.050382    1.162954   -0.886582
     59          1           0       -2.939210   -0.125580    2.895433
     60          1           0       -1.855670   -0.471048    1.572741
     61          1           0       -2.744161    2.107637    2.560977
     62          1           0       -1.490694    1.751440    1.387313
     63          1           0       -2.551284    3.283902   -2.550088
     64          1           0       -4.189463    3.373438   -3.145466
     65          1           0       -3.678324    5.017732   -1.324795
     66          1           0       -5.028323    3.974054   -0.916560
     67          1           0       -2.127964    3.713939    0.031642
     68          1           0       -3.502607    4.192139    1.019460
     69          1           0       -5.784281   -0.742454   -1.200544
     70          1           0       -4.576986   -0.973438   -2.429535
     71          1           0       -5.348837    1.036494   -3.212321
     72          1           0       -5.810844    1.639150   -1.623796
     73          1           0       -5.066580    2.516679    1.926699
     74          1           0       -5.667609    2.243024    0.330340
     75          1           0       -5.208028    0.405427    2.569624
     76          1           0       -8.415599   -2.550528    2.111612
     77          1           0       -9.028982   -0.927517    1.735509
     78          1           0       -8.288751   -1.947596    0.447594
     79          1           0       -3.133869   -2.554209    2.885870
     80          1           0       -4.508641   -3.568287    2.385556
     81          1           0       -4.796378   -2.000745    3.130159
     82          1           0       -0.097627   -2.440208   -3.519432
     83          1           0       -0.021494   -4.104097   -3.000503
     84          1           0        0.897352   -0.694086   -1.570900
     85          1           0        2.092812   -4.804150   -2.186870
     86          1           0        4.256090   -4.355667   -1.107570
     87          1           0        2.637279    1.333511   -1.775128
     88          1           0        6.448909   -0.177652   -1.880872
     89          1           0        4.858093   -0.474981   -2.532956
     90          1           0        4.691456    1.744558   -2.944540
     91          1           0        6.189793    2.066071   -2.088586
     92          1           0        1.360064    3.684483   -0.934525
     93          1           0        1.227085    3.791248    0.832970
     94          1           0        3.012116    5.286689   -0.166517
     95          1           0        3.655700    4.172419    1.020628
     96          1           0        3.691569    3.832284   -2.028994
     97          1           0        5.076491    4.251123   -1.030576
     98          1           0        1.754832   -0.608128    1.217719
     99          1           0        3.273009   -0.408854    2.021647
    100          1           0        3.000322    2.053264    1.937493
    101          1           0        1.306945    1.514469    2.042300
    102          1           0        4.897884    2.434270    1.332012
    103          1           0        6.263854    2.575824    0.288748
    104          1           0        6.802966    0.437603    0.366318
    105          1           0        7.117296   -2.317500    3.757713
    106          1           0        5.495429   -1.650963    4.032070
    107          1           0        6.960541   -0.653177    4.355885
    108          1           0        7.105113   -1.985443   -0.065040
    109          1           0        6.232387   -3.511875   -0.019594
    110          1           0        6.372146   -2.611006   -1.549101
 ---------------------------------------------------------------------
 Rotational constants (GHZ):           0.0978962           0.0325790           0.0293207
 Standard basis: STO-3G (5D, 7F)
 There are   326 symmetry adapted cartesian basis functions of A   symmetry.
 There are   326 symmetry adapted basis functions of A   symmetry.
   326 basis functions,   978 primitive gaussians,   326 cartesian basis functions
   197 alpha electrons      197 beta electrons
       nuclear repulsion energy      8145.0159773993 Hartrees.
 NAtoms=  110 NActive=  110 NUniq=  110 SFac= 1.00D+00 NAtFMM=   60 NAOKFM=T Big=T
 Integral buffers will be    131072 words long.
 Raffenetti 1 integral format.
 Two-electron integral symmetry is turned on.
 One-electron integrals computed using PRISM.
 NBasis=   326 RedAO= T EigKep=  1.72D-01  NBF=   326
 NBsUse=   326 1.00D-06 EigRej= -1.00D+00 NBFU=   326
 ExpMin= 1.69D-01 ExpMax= 1.31D+02 ExpMxC= 1.31D+02 IAcc=3 IRadAn=         5 AccDes= 0.00D+00
 Harris functional with IExCor=  205 and IRadAn=       5 diagonalized for initial guess.
 HarFok:  IExCor=  205 AccDes= 0.00D+00 IRadAn=         5 IDoV= 1 UseB2=F ITyADJ=14
 ICtDFT=  3500011 ScaDFX=  1.000000  1.000000  1.000000  1.000000
 FoFCou: FMM=F IPFlag=           0 FMFlag=      100000 FMFlg1=        2001
         NFxFlg=           0 DoJE=T BraDBF=F KetDBF=T FulRan=T
         wScrn=  0.000000 ICntrl=       500 IOpCl=  0 I1Cent=   200000004 NGrid=           0
         NMat0=    1 NMatS0=      1 NMatT0=    0 NMatD0=    1 NMtDS0=    0 NMtDT0=    0
 Petite list used in FoFCou.
 Requested convergence on RMS density matrix=1.00D-08 within 128 cycles.
 Requested convergence on MAX density matrix=1.00D-06.
 Requested convergence on             energy=1.00D-06.
 No special actions if energy rises.
 Integral accuracy reduced to 1.0D-05 until final iterations.
 Initial convergence to 1.0D-05 achieved.  Increase integral accuracy.
 SCF Done:  E(RHF) =  -2300.22729835     A.U. after   16 cycles
            NFock= 16  Conv=0.34D-08     -V/T= 2.0092
 Range of M.O.s used for correlation:     1   326
 NBasis=   326 NAE=   197 NBE=   197 NFC=     0 NFV=     0
 NROrb=    326 NOA=   197 NOB=   197 NVA=   129 NVB=   129
          Differentiating once with respect to magnetic field using GIAOs.
          Electric field/nuclear overlap derivatives assumed to be zero.
 FoFCou: FMM=F IPFlag=           0 FMFlag=      100000 FMFlg1=        2001
         NFxFlg=           0 DoJE=F BraDBF=F KetDBF=T FulRan=T
         wScrn=  0.000000 ICntrl=      6100 IOpCl=  0 I1Cent=           7 NGrid=         110
         NMat0=    1 NMatS0=      1 NMatT0=    0 NMatD0=    1 NMtDS0=    0 NMtDT0=    0
 Symmetry not used in FoFCou.
 FoFJK:  IHMeth= 1 ICntrl=    6127 DoSepK=F KAlg= 0 I1Cent=           0 FoldK=F
 IRaf=         1 NMat=       1 IRICut=       1 DoRegI=T DoRafI=F ISym2E= 0 IDoP0=0 IntGTp=1.
          There are     3 degrees of freedom in the 1st order CPHF.  IDoFFX=0 NUNeed=     3.
      3 vectors produced by pass  0 Test12= 8.47D-13 3.33D-08 XBig12= 1.78D+02 1.89D+00.
 AX will form     3 AO Fock derivatives at one time.
      3 vectors produced by pass  1 Test12= 8.47D-13 3.33D-08 XBig12= 6.98D-01 2.91D-01.
      3 vectors produced by pass  2 Test12= 8.47D-13 3.33D-08 XBig12= 1.98D-02 3.40D-02.
      3 vectors produced by pass  3 Test12= 8.47D-13 3.33D-08 XBig12= 6.32D-04 9.84D-03.
      3 vectors produced by pass  4 Test12= 8.47D-13 3.33D-08 XBig12= 2.23D-05 9.14D-04.
      3 vectors produced by pass  5 Test12= 8.47D-13 3.33D-08 XBig12= 3.25D-07 8.28D-05.
      3 vectors produced by pass  6 Test12= 8.47D-13 3.33D-08 XBig12= 8.61D-09 1.99D-05.
      3 vectors produced by pass  7 Test12= 8.47D-13 3.33D-08 XBig12= 3.55D-10 3.18D-06.
      3 vectors produced by pass  8 Test12= 8.47D-13 3.33D-08 XBig12= 7.08D-12 3.88D-07.
      2 vectors produced by pass  9 Test12= 8.47D-13 3.33D-08 XBig12= 1.26D-13 7.63D-08.
 InvSVY:  IOpt=1 It=  1 EMax= 5.33D-15
 Solved reduced A of dimension    29 with     3 vectors.
 Calculating GIAO nuclear magnetic shielding tensors.
 SCF GIAO Magnetic shielding tensor (ppm):
      1  C    Isotropic =   123.5343   Anisotropy =   148.9677
   XX=   156.6327   YX=    15.3059   ZX=    60.3391
   XY=    10.7473   YY=    85.8300   ZY=    69.2814
   XZ=    52.4870   YZ=    66.9041   ZZ=   128.1401
   Eigenvalues:    30.7415   117.0152   222.8461
      2  C    Isotropic =   120.5793   Anisotropy =   159.3893
   XX=   120.8240   YX=    41.6286   ZX=    79.6556
   XY=    39.4797   YY=   114.1356   ZY=    29.7643
   XZ=    83.1717   YZ=    28.7535   ZZ=   126.7783
   Eigenvalues:    40.9808    93.9183   226.8389
      3  C    Isotropic =   119.8903   Anisotropy =   154.6482
   XX=   134.9378   YX=    64.5302   ZX=    53.2543
   XY=    63.3006   YY=    66.5315   ZY=    28.5111
   XZ=    43.5322   YZ=    30.8988   ZZ=   158.2014
   Eigenvalues:    28.2396   108.4421   222.9891
      4  C    Isotropic =   133.9460   Anisotropy =   143.5762
   XX=   169.1686   YX=    20.5135   ZX=    54.5336
   XY=    19.4088   YY=   101.8024   ZY=    53.1008
   XZ=    54.1960   YZ=    66.6697   ZZ=   130.8670
   Eigenvalues:    51.2949   120.8796   229.6635
      5  C    Isotropic =   108.2532   Anisotropy =   128.9951
   XX=   123.4112   YX=    39.7542   ZX=    63.2935
   XY=    28.1539   YY=   105.3622   ZY=    19.8249
   XZ=    70.7879   YZ=    16.4704   ZZ=    95.9863
   Eigenvalues:    40.2671    90.2426   194.2499
      6  C    Isotropic =   116.9341   Anisotropy =   143.1083
   XX=   140.0725   YX=    33.4583   ZX=    58.7763
   XY=    47.0319   YY=    67.1040   ZY=    29.6085
   XZ=    50.6963   YZ=    25.1442   ZZ=   143.6257
   Eigenvalues:    49.1322    89.3304   212.3396
      7  N    Isotropic =   272.9505   Anisotropy =    80.2791
   XX=   265.3680   YX=   -13.3118   ZX=   -35.0586
   XY=   -19.2056   YY=   277.8793   ZY=    40.6260
   XZ=   -18.9205   YZ=    28.0487   ZZ=   275.6044
   Eigenvalues:   237.9444   254.4373   326.4700
      8  C    Isotropic =   196.1017   Anisotropy =    12.3348
   XX=   197.8531   YX=     0.2948   ZX=     2.6499
   XY=     7.0347   YY=   196.2226   ZY=    -6.4993
   XZ=    -1.6536   YZ=    -9.6359   ZZ=   194.2293
   Eigenvalues:   186.3915   197.5886   204.3248
      9  C    Isotropic =   180.5972   Anisotropy =    44.8572
   XX=   161.6690   YX=     8.5629   ZX=    -7.5853
   XY=    -5.9882   YY=   207.1903   ZY=   -10.9807
   XZ=   -19.6141   YZ=    -9.3481   ZZ=   172.9323
   Eigenvalues:   152.1797   179.1099   210.5020
     10  C    Isotropic =   190.2747   Anisotropy =    29.6769
   XX=   181.3622   YX=    -2.4499   ZX=    10.9493
   XY=    -3.7188   YY=   193.3013   ZY=    -9.1276
   XZ=    15.4219   YZ=   -10.7350   ZZ=   196.1607
   Eigenvalues:   173.3079   187.4570   210.0594
     11  C    Isotropic =   213.6888   Anisotropy =    20.0404
   XX=   218.6486   YX=     3.1537   ZX=    11.0378
   XY=     9.2052   YY=   211.8897   ZY=     2.0901
   XZ=     6.4995   YZ=     2.6956   ZZ=   210.5282
   Eigenvalues:   204.5918   209.4256   227.0491
     12  C    Isotropic =   213.3235   Anisotropy =    20.0462
   XX=   213.9882   YX=    -2.6353   ZX=     8.3960
   XY=    -4.4981   YY=   211.6323   ZY=    -8.1542
   XZ=     8.4514   YZ=    -6.5937   ZZ=   214.3501
   Eigenvalues:   204.1349   209.1480   226.6877
     13  C    Isotropic =   213.4707   Anisotropy =     9.6322
   XX=   218.1057   YX=     2.9307   ZX=     2.0952
   XY=     2.7809   YY=   215.1907   ZY=     1.2798
   XZ=    -2.3692   YZ=     1.7955   ZZ=   207.1156
   Eigenvalues:   206.7920   213.7279   219.8922
     14  N    Isotropic =   303.5020   Anisotropy =    56.9129
   XX=   309.7672   YX=    28.1446   ZX=    37.4397
   XY=    15.6300   YY=   305.6318   ZY=   -28.1397
   XZ=    34.6184   YZ=   -42.7057   ZZ=   295.1070
   Eigenvalues:   239.7052   329.3569   341.4439
     15  C    Isotropic =   205.2261   Anisotropy =    33.8130
   XX=   189.8768   YX=     2.2528   ZX=    -3.0904
   XY=     6.3524   YY=   225.3218   ZY=    -6.5313
   XZ=    -4.7349   YZ=    -7.0898   ZZ=   200.4798
   Eigenvalues:   188.4705   199.4398   227.7681
     16  C    Isotropic =   223.9561   Anisotropy =     8.1544
   XX=   219.5698   YX=     1.7709   ZX=     0.6237
   XY=    -3.1809   YY=   223.7877   ZY=    -1.4180
   XZ=     1.9392   YZ=    -2.3823   ZZ=   228.5107
   Eigenvalues:   219.3431   223.1328   229.3924
     17  C    Isotropic =   215.2120   Anisotropy =    18.9057
   XX=   210.5149   YX=     0.3081   ZX=    -0.1522
   XY=     3.4454   YY=   224.2975   ZY=    -9.6781
   XZ=     0.6809   YZ=    -5.3875   ZZ=   210.8236
   Eigenvalues:   207.1421   210.6782   227.8158
     18  C    Isotropic =   210.6800   Anisotropy =    36.8439
   XX=   210.6581   YX=    -9.7199   ZX=    24.0369
   XY=    -2.2227   YY=   211.4172   ZY=    -5.0931
   XZ=    20.6950   YZ=    -5.0479   ZZ=   209.9648
   Eigenvalues:   187.9278   208.8697   235.2426
     19  C    Isotropic =   199.9160   Anisotropy =    42.9480
   XX=   212.6813   YX=    19.1438   ZX=    15.3255
   XY=    19.5304   YY=   203.3771   ZY=    -6.9256
   XZ=     8.4518   YZ=    -6.8627   ZZ=   183.6897
   Eigenvalues:   172.6748   198.5252   228.5480
     20  C    Isotropic =   212.1344   Anisotropy =    22.1354
   XX=   219.8973   YX=     6.7755   ZX=    -8.1023
   XY=     7.3174   YY=   214.9361   ZY=    -1.3805
   XZ=    -8.5081   YZ=     0.7870   ZZ=   201.5697
   Eigenvalues:   198.0288   211.4830   226.8913
     21  C    Isotropic =   208.9074   Anisotropy =    11.8151
   XX=   216.7219   YX=     4.5677   ZX=    -2.3236
   XY=    -3.5368   YY=   208.5538   ZY=     4.8658
   XZ=     0.4440   YZ=     6.4832   ZZ=   201.4465
   Eigenvalues:   198.2426   211.6955   216.7841
     22  C    Isotropic =    96.1400   Anisotropy =    98.9366
   XX=    68.9343   YX=   -82.9856   ZX=    20.4884
   XY=   -99.0004   YY=    73.1097   ZY=    20.5127
   XZ=    34.0109   YZ=    30.8295   ZZ=   146.3760
   Eigenvalues:   -28.0286   154.3509   162.0977
     23  O    Isotropic =  -133.8342   Anisotropy =   885.7847
   XX=  -271.2710   YX=   -78.7165   ZX=  -299.9027
   XY=   -83.7070   YY=  -102.1955   ZY=   419.8368
   XZ=  -280.2772   YZ=   416.4462   ZZ=   -28.0362
   Eigenvalues:  -569.0714  -289.1202   456.6889
     24  O    Isotropic =   284.4712   Anisotropy =   139.4260
   XX=   160.6989   YX=   -74.7197   ZX=   -54.0253
   XY=    43.5693   YY=   367.9579   ZY=    10.5527
   XZ=  -125.5943   YZ=   -46.1689   ZZ=   324.7567
   Eigenvalues:   119.2444   356.7473   377.4218
     25  C    Isotropic =   197.4508   Anisotropy =    57.8241
   XX=   225.1949   YX=    20.9826   ZX=     7.6166
   XY=    21.3754   YY=   187.2846   ZY=     4.3769
   XZ=     7.7685   YZ=     3.6708   ZZ=   179.8729
   Eigenvalues:   177.5376   178.8145   236.0002
     26  C    Isotropic =   209.8556   Anisotropy =    40.7039
   XX=   200.2954   YX=     0.3989   ZX=    -2.3264
   XY=     3.0004   YY=   202.4428   ZY=   -18.8395
   XZ=    -2.3475   YZ=   -18.1023   ZZ=   226.8287
   Eigenvalues:   192.4835   200.0918   236.9915
     27  C    Isotropic =   206.3179   Anisotropy =    16.5001
   XX=   216.8383   YX=    -0.5564   ZX=    -3.6634
   XY=    -1.5631   YY=   199.2068   ZY=     5.2329
   XZ=    -0.4476   YZ=     4.4802   ZZ=   202.9086
   Eigenvalues:   195.8561   205.7795   217.3179
     28  C    Isotropic =   119.2624   Anisotropy =   158.2438
   XX=    69.7588   YX=     0.6237   ZX=   -70.3353
   XY=     1.8411   YY=    98.7607   ZY=   -33.0307
   XZ=   -58.3236   YZ=   -32.5094   ZZ=   189.2678
   Eigenvalues:    39.0830    93.9460   224.7583
     29  C    Isotropic =   121.6511   Anisotropy =   158.7232
   XX=    93.1009   YX=    49.5340   ZX=   -49.5316
   XY=    51.8349   YY=    74.0878   ZY=   -22.4376
   XZ=   -40.9608   YZ=   -31.5676   ZZ=   197.7648
   Eigenvalues:    31.5558   105.9310   227.4666
     30  C    Isotropic =   119.0207   Anisotropy =   149.3624
   XX=   123.9334   YX=    -8.4421   ZX=   -46.2798
   XY=    -7.3518   YY=    45.7351   ZY=   -49.1960
   XZ=   -42.5388   YZ=   -42.7215   ZZ=   187.3937
   Eigenvalues:    27.4569   111.0096   218.5957
     31  C    Isotropic =   134.3850   Anisotropy =   140.9509
   XX=   111.2206   YX=    47.9091   ZX=   -40.8099
   XY=    40.2236   YY=    89.0207   ZY=   -19.5296
   XZ=   -43.7453   YZ=   -19.3560   ZZ=   202.9136
   Eigenvalues:    53.7826   121.0201   228.3523
     32  C    Isotropic =   109.6384   Anisotropy =   125.2421
   XX=    67.6083   YX=     3.2228   ZX=   -52.6705
   XY=     9.1535   YY=   101.5373   ZY=   -21.4114
   XZ=   -53.8006   YZ=   -36.0987   ZZ=   159.7696
   Eigenvalues:    42.5279    93.2543   193.1331
     33  C    Isotropic =   119.8061   Anisotropy =   134.9870
   XX=   123.3720   YX=     7.9188   ZX=   -42.6848
   XY=     7.0830   YY=    62.8036   ZY=   -41.7588
   XZ=   -49.9659   YZ=   -33.0413   ZZ=   173.2428
   Eigenvalues:    50.6036    99.0173   209.7975
     34  N    Isotropic =   275.5026   Anisotropy =    81.8208
   XX=   298.8062   YX=    29.2228   ZX=     9.0706
   XY=    45.3363   YY=   277.2182   ZY=     5.9459
   XZ=    21.9923   YZ=     5.9767   ZZ=   250.4834
   Eigenvalues:   243.6511   252.8069   330.0498
     35  C    Isotropic =   195.5984   Anisotropy =    14.2803
   XX=   197.1573   YX=    -8.6630   ZX=     1.8618
   XY=    -7.6649   YY=   196.0875   ZY=    -4.8863
   XZ=     0.8566   YZ=     2.2056   ZZ=   193.5505
   Eigenvalues:   188.4405   193.2362   205.1186
     36  C    Isotropic =   181.3848   Anisotropy =    44.4082
   XX=   181.1118   YX=    -8.9827   ZX=    12.5434
   XY=    -6.7757   YY=   208.7499   ZY=     5.0956
   XZ=     1.3719   YZ=    -7.4105   ZZ=   154.2926
   Eigenvalues:   152.5848   180.5792   210.9902
     37  C    Isotropic =   180.1237   Anisotropy =    47.1565
   XX=   184.7340   YX=   -11.5780   ZX=   -23.4933
   XY=   -19.1711   YY=   174.3631   ZY=     9.0027
   XZ=   -17.1089   YZ=     8.8952   ZZ=   181.2740
   Eigenvalues:   160.5020   168.3078   211.5613
     38  C    Isotropic =   213.8008   Anisotropy =    19.2969
   XX=   207.6922   YX=     1.1909   ZX=    -5.7415
   XY=    -0.8638   YY=   212.0283   ZY=    -8.2582
   XZ=    -9.3096   YZ=    -2.4287   ZZ=   221.6819
   Eigenvalues:   203.8508   210.8862   226.6654
     39  C    Isotropic =   212.5383   Anisotropy =    21.8143
   XX=   209.5946   YX=    -5.8901   ZX=    -8.7935
   XY=    -7.2429   YY=   212.0035   ZY=     7.3353
   XZ=    -8.2963   YZ=     4.8893   ZZ=   216.0167
   Eigenvalues:   202.9434   207.5902   227.0811
     40  C    Isotropic =   212.0269   Anisotropy =     9.2910
   XX=   210.7922   YX=     1.5309   ZX=     0.3187
   XY=     1.1759   YY=   215.9729   ZY=    -3.3300
   XZ=    -0.5608   YZ=    -5.0686   ZZ=   209.3156
   Eigenvalues:   207.2184   210.6414   218.2209
     41  N    Isotropic =   235.0535   Anisotropy =    28.7496
   XX=   253.4450   YX=   -15.2613   ZX=     3.5779
   XY=     8.7992   YY=   218.9156   ZY=     9.6657
   XZ=     3.6846   YZ=     1.0067   ZZ=   232.8000
   Eigenvalues:   216.6121   234.3285   254.2199
     42  C    Isotropic =   194.8963   Anisotropy =    48.3370
   XX=   185.4020   YX=    -7.3166   ZX=     5.6807
   XY=    -0.3829   YY=   226.3252   ZY=    -8.3142
   XZ=     9.6364   YZ=     0.0873   ZZ=   172.9616
   Eigenvalues:   169.2394   188.3286   227.1209
     43  C    Isotropic =   222.9949   Anisotropy =    11.5368
   XX=   229.0035   YX=    -0.2359   ZX=    -5.0943
   XY=    -0.7545   YY=   223.6138   ZY=     2.7467
   XZ=    -4.0884   YZ=     1.5930   ZZ=   216.3674
   Eigenvalues:   214.4724   223.8262   230.6861
     44  C    Isotropic =   215.7473   Anisotropy =    18.7588
   XX=   212.5561   YX=    -4.3471   ZX=    -1.2230
   XY=    -9.3980   YY=   225.1547   ZY=    -2.2016
   XZ=     0.4267   YZ=    -0.7367   ZZ=   209.5313
   Eigenvalues:   208.5395   210.4493   228.2532
     45  C    Isotropic =   211.1482   Anisotropy =    36.6975
   XX=   200.6311   YX=    -2.4013   ZX=   -16.2761
   XY=    -4.2378   YY=   211.7972   ZY=     6.5626
   XZ=   -18.3266   YZ=    13.9820   ZZ=   221.0163
   Eigenvalues:   190.4788   207.3525   235.6132
     46  C    Isotropic =   191.8658   Anisotropy =    50.8249
   XX=   173.2063   YX=   -13.7541   ZX=     4.0754
   XY=   -21.1198   YY=   184.7910   ZY=   -18.4963
   XZ=    -2.8110   YZ=   -14.9274   ZZ=   217.6002
   Eigenvalues:   159.0207   190.8277   225.7491
     47  C    Isotropic =   212.5805   Anisotropy =    21.7291
   XX=   208.4826   YX=    -0.5796   ZX=    11.2533
   XY=    -2.2869   YY=   215.4671   ZY=    -7.5116
   XZ=    11.6645   YZ=    -7.6131   ZZ=   213.7919
   Eigenvalues:   198.5212   212.1538   227.0666
     48  C    Isotropic =   209.5390   Anisotropy =     9.4911
   XX=   205.3162   YX=     5.4157   ZX=     2.1194
   XY=     6.2285   YY=   208.5206   ZY=     2.3784
   XZ=     4.6328   YZ=    -5.7932   ZZ=   214.7802
   Eigenvalues:   199.9447   212.8059   215.8664
     49  C    Isotropic =    96.0731   Anisotropy =    98.6868
   XX=   131.9731   YX=    46.2828   ZX=   -49.1047
   XY=    40.9318   YY=    81.1981   ZY=    92.1469
   XZ=   -36.4138   YZ=    74.4363   ZZ=    75.0481
   Eigenvalues:   -28.4584   154.8134   161.8643
     50  O    Isotropic =  -133.3704   Anisotropy =   887.1592
   XX=   127.0568   YX=   425.9213   ZX=   153.3722
   XY=   431.7896   YY=  -133.2122   ZY=   -44.1874
   XZ=   178.6262   YZ=   -54.7915   ZZ=  -393.9557
   Eigenvalues:  -568.4995  -289.6807   458.0691
     51  O    Isotropic =   283.2335   Anisotropy =   139.3015
   XX=   358.8066   YX=   -19.5850   ZX=    73.8126
   XY=     0.9515   YY=   369.6923   ZY=   -60.5654
   XZ=     3.3804   YZ=    71.5196   ZZ=   121.2015
   Eigenvalues:   114.9039   358.6954   376.1012
     52  C    Isotropic =   197.2150   Anisotropy =    57.5799
   XX=   179.2036   YX=    -1.5901   ZX=     4.1376
   XY=    -0.8970   YY=   184.7376   ZY=   -19.6915
   XZ=     4.5581   YZ=   -19.3323   ZZ=   227.7037
   Eigenvalues:   177.1048   178.9385   235.6016
     53  C    Isotropic =   209.9066   Anisotropy =    42.1053
   XX=   224.8943   YX=   -19.1045   ZX=    -5.0989
   XY=   -20.2188   YY=   205.0240   ZY=     2.8249
   XZ=    -4.4145   YZ=     5.1528   ZZ=   199.8016
   Eigenvalues:   192.7967   198.9464   237.9768
     54  O    Isotropic =     7.0100   Anisotropy =   518.2203
   XX=   253.3702   YX=   142.5970   ZX=   136.4564
   XY=   165.5124   YY=  -138.1047   ZY=    44.9025
   XZ=   137.9565   YZ=    36.5245   ZZ=   -94.2355
   Eigenvalues:  -192.1832  -139.2769   352.4902
     55  H    Isotropic =    25.2394   Anisotropy =    12.6878
   XX=    28.3837   YX=    -5.0766   ZX=    -3.2397
   XY=    -5.1767   YY=    25.1458   ZY=     2.8276
   XZ=    -3.5526   YZ=     2.2270   ZZ=    22.1888
   Eigenvalues:    20.6306    21.3897    33.6980
     56  H    Isotropic =    26.0343   Anisotropy =     7.0306
   XX=    26.4444   YX=     0.7984   ZX=    -3.7447
   XY=     0.3928   YY=    27.6916   ZY=    -1.2737
   XZ=    -5.3068   YZ=    -2.2789   ZZ=    23.9668
   Eigenvalues:    20.3574    27.0241    30.7213
     57  H    Isotropic =    26.7416   Anisotropy =     7.7635
   XX=    25.8069   YX=    -2.6620   ZX=    -4.0871
   XY=    -2.4536   YY=    30.4616   ZY=    -0.6740
   XZ=    -4.4669   YZ=    -0.1409   ZZ=    23.9564
   Eigenvalues:    20.1357    28.1719    31.9173
     58  H    Isotropic =    30.8602   Anisotropy =    14.1543
   XX=    39.9313   YX=    -0.2837   ZX=    -2.6771
   XY=    -1.8397   YY=    27.4539   ZY=    -0.4504
   XZ=    -1.3778   YZ=     0.8971   ZZ=    25.1952
   Eigenvalues:    24.9188    27.3653    40.2964
     59  H    Isotropic =    32.3606   Anisotropy =    12.1258
   XX=    27.1928   YX=     2.5166   ZX=     2.4682
   XY=     1.6274   YY=    30.2931   ZY=    -2.7660
   XZ=     0.7148   YZ=    -2.8151   ZZ=    39.5960
   Eigenvalues:    25.6229    31.0145    40.4445
     60  H    Isotropic =    32.9607   Anisotropy =    10.7255
   XX=    39.2247   YX=    -1.6633   ZX=     2.6276
   XY=    -3.5666   YY=    32.3462   ZY=     1.0329
   XZ=    -0.8040   YZ=     2.8138   ZZ=    27.3112
   Eigenvalues:    26.4208    32.3503    40.1110
     61  H    Isotropic =    32.5043   Anisotropy =    13.4617
   XX=    28.0426   YX=     0.8814   ZX=     1.7207
   XY=     0.9549   YY=    31.3552   ZY=     5.2502
   XZ=     1.4891   YZ=     5.8287   ZZ=    38.1151
   Eigenvalues:    27.7877    28.2465    41.4788
     62  H    Isotropic =    31.8787   Anisotropy =    18.6786
   XX=    43.6877   YX=     3.6424   ZX=     0.6163
   XY=     2.9332   YY=    27.3609   ZY=    -0.9259
   XZ=     0.2184   YZ=     0.2933   ZZ=    24.5875
   Eigenvalues:    24.5126    26.7924    44.3311
     63  H    Isotropic =    31.5617   Anisotropy =    14.0466
   XX=    35.5820   YX=     3.0531   ZX=    -5.5326
   XY=     4.0446   YY=    29.2892   ZY=    -3.7143
   XZ=    -5.5585   YZ=    -3.0232   ZZ=    29.8140
   Eigenvalues:    25.8227    27.9364    40.9262
     64  H    Isotropic =    31.7923   Anisotropy =    15.7181
   XX=    27.1029   YX=    -1.4610   ZX=     5.1643
   XY=    -1.3004   YY=    30.7485   ZY=    -5.8928
   XZ=     4.6494   YZ=    -5.2125   ZZ=    37.5257
   Eigenvalues:    24.9913    28.1147    42.2711
     65  H    Isotropic =    32.6404   Anisotropy =    17.2299
   XX=    26.6527   YX=     1.3735   ZX=     0.3682
   XY=     0.8516   YY=    43.0637   ZY=    -3.9389
   XZ=     0.4123   YZ=    -4.0591   ZZ=    28.2048
   Eigenvalues:    26.1819    27.6123    44.1270
     66  H    Isotropic =    32.5132   Anisotropy =    11.9978
   XX=    38.6890   YX=    -4.1871   ZX=    -0.4108
   XY=    -3.9091   YY=    31.5158   ZY=    -1.4858
   XZ=    -0.5877   YZ=    -1.2579   ZZ=    27.3347
   Eigenvalues:    26.6399    30.3880    40.5117
     67  H    Isotropic =    32.2669   Anisotropy =    14.7320
   XX=    40.2466   YX=     4.5314   ZX=     1.1362
   XY=     4.5022   YY=    30.9255   ZY=    -1.5421
   XZ=     0.9365   YZ=    -1.2121   ZZ=    25.6288
   Eigenvalues:    24.9485    29.7640    42.0883
     68  H    Isotropic =    32.5137   Anisotropy =    13.7253
   XX=    26.8595   YX=    -1.2451   ZX=    -1.0509
   XY=    -0.7909   YY=    37.0141   ZY=     5.7519
   XZ=    -0.7410   YZ=     6.1871   ZZ=    33.6676
   Eigenvalues:    26.7319    29.1453    41.6639
     69  H    Isotropic =    32.9069   Anisotropy =    11.7126
   XX=    38.3208   YX=     4.7631   ZX=    -0.9072
   XY=     5.3178   YY=    29.2088   ZY=    -0.2273
   XZ=    -0.9002   YZ=    -1.7058   ZZ=    31.1911
   Eigenvalues:    26.9065    31.0989    40.7153
     70  H    Isotropic =    32.2592   Anisotropy =    11.8288
   XX=    28.5888   YX=    -3.4118   ZX=     2.5508
   XY=    -1.2025   YY=    32.9427   ZY=     7.3155
   XZ=     2.7220   YZ=     4.5025   ZZ=    35.2460
   Eigenvalues:    24.8551    31.7774    40.1450
     71  H    Isotropic =    31.8290   Anisotropy =    16.4473
   XX=    29.5827   YX=     0.5547   ZX=     8.3416
   XY=     0.6648   YY=    27.4260   ZY=     0.0493
   XZ=     6.7458   YZ=    -1.4487   ZZ=    38.4783
   Eigenvalues:    24.9609    27.7323    42.7939
     72  H    Isotropic =    31.8983   Anisotropy =     9.8592
   XX=    37.3316   YX=    -3.5043   ZX=     0.1945
   XY=    -2.9075   YY=    29.4201   ZY=     0.4796
   XZ=     0.1236   YZ=    -0.6869   ZZ=    28.9432
   Eigenvalues:    28.2811    28.9427    38.4711
     73  H    Isotropic =    32.2472   Anisotropy =    14.2776
   XX=    28.8219   YX=    -2.3252   ZX=    -5.1320
   XY=    -1.6218   YY=    34.2211   ZY=     5.5323
   XZ=    -4.9401   YZ=     6.2348   ZZ=    33.6988
   Eigenvalues:    25.2993    29.6768    41.7656
     74  H    Isotropic =    31.3550   Anisotropy =    10.3314
   XX=    35.6586   YX=    -3.7843   ZX=     2.3249
   XY=    -2.4266   YY=    29.6866   ZY=    -3.6684
   XZ=     2.0963   YZ=    -3.1527   ZZ=    28.7197
   Eigenvalues:    25.7413    30.0811    38.2426
     75  H    Isotropic =    31.2356   Anisotropy =    11.9944
   XX=    28.3512   YX=     0.8881   ZX=    -4.1799
   XY=     1.6516   YY=    27.7152   ZY=    -0.0163
   XZ=    -3.8429   YZ=    -1.3097   ZZ=    37.6404
   Eigenvalues:    26.2100    28.2649    39.2319
     76  H    Isotropic =    30.5657   Anisotropy =    12.1347
   XX=    30.8427   YX=     4.4015   ZX=    -2.5306
   XY=     4.0199   YY=    33.1226   ZY=    -4.8255
   XZ=    -1.8783   YZ=    -4.3950   ZZ=    27.7318
   Eigenvalues:    25.0776    27.9640    38.6555
     77  H    Isotropic =    30.5778   Anisotropy =    11.8536
   XX=    37.2435   YX=    -2.2814   ZX=    -2.9783
   XY=    -2.6378   YY=    28.4295   ZY=     0.6386
   XZ=    -2.4574   YZ=     0.0853   ZZ=    26.0605
   Eigenvalues:    25.4192    27.8341    38.4803
     78  H    Isotropic =    30.6288   Anisotropy =     8.0643
   XX=    31.3299   YX=     3.0423   ZX=     1.4480
   XY=     3.4326   YY=    28.1472   ZY=     2.3968
   XZ=     2.0683   YZ=     3.2874   ZZ=    32.4092
   Eigenvalues:    25.7312    30.1501    36.0050
     79  H    Isotropic =    32.0395   Anisotropy =    10.3935
   XX=    32.6933   YX=    -1.2662   ZX=     5.2287
   XY=    -1.5092   YY=    29.6641   ZY=    -3.6836
   XZ=     2.8360   YZ=    -4.2365   ZZ=    33.7612
   Eigenvalues:    27.0335    30.1166    38.9685
     80  H    Isotropic =    30.8355   Anisotropy =    14.7395
   XX=    27.5077   YX=     3.2673   ZX=    -2.3463
   XY=     3.2983   YY=    38.0182   ZY=    -4.1254
   XZ=    -3.4263   YZ=    -4.1919   ZZ=    26.9806
   Eigenvalues:    24.2649    27.5797    40.6618
     81  H    Isotropic =    30.9627   Anisotropy =    10.8208
   XX=    29.9080   YX=    -1.9895   ZX=    -5.0163
   XY=    -1.7670   YY=    28.8818   ZY=    -2.1073
   XZ=    -6.5292   YZ=    -1.8212   ZZ=    34.0982
   Eigenvalues:    24.3032    30.4082    38.1765
     82  H    Isotropic =    29.9469   Anisotropy =     8.0948
   XX=    27.1285   YX=    -1.5147   ZX=     0.1144
   XY=    -2.5921   YY=    28.7955   ZY=    -2.1763
   XZ=     2.1051   YZ=    -2.8205   ZZ=    33.9167
   Eigenvalues:    25.7117    28.7856    35.3434
     83  H    Isotropic =    29.8775   Anisotropy =    12.5820
   XX=    27.6316   YX=    -0.1881   ZX=     0.1918
   XY=    -1.3999   YY=    35.4002   ZY=     5.3969
   XZ=    -1.2490   YZ=     5.9535   ZZ=    26.6007
   Eigenvalues:    23.8154    27.5517    38.2655
     84  H    Isotropic =    25.0609   Anisotropy =    15.5066
   XX=    30.9839   YX=     4.7181   ZX=     2.6553
   XY=     4.2209   YY=    25.8772   ZY=     3.7423
   XZ=     4.9863   YZ=     5.1108   ZZ=    18.3215
   Eigenvalues:    16.0709    23.7131    35.3986
     85  H    Isotropic =    25.6133   Anisotropy =     6.5940
   XX=    28.6498   YX=    -2.3344   ZX=     1.5861
   XY=    -1.6246   YY=    26.8725   ZY=     1.4300
   XZ=     2.0778   YZ=     1.3895   ZZ=    21.3174
   Eigenvalues:    20.3495    26.4810    30.0092
     86  H    Isotropic =    26.5982   Anisotropy =     7.9115
   XX=    27.8557   YX=     0.8250   ZX=     2.6508
   XY=     0.6564   YY=    30.6075   ZY=     2.5070
   XZ=     3.1717   YZ=     2.5884   ZZ=    21.3315
   Eigenvalues:    19.7960    28.1261    31.8725
     87  H    Isotropic =    30.6792   Anisotropy =     6.9075
   XX=    31.7474   YX=     0.5126   ZX=     1.6957
   XY=     0.5830   YY=    27.9994   ZY=     1.4349
   XZ=     4.6111   YZ=    -0.1232   ZZ=    32.2906
   Eigenvalues:    27.8978    28.8555    35.2842
     88  H    Isotropic =    32.1222   Anisotropy =    14.1814
   XX=    37.6516   YX=    -4.1974   ZX=    -5.4417
   XY=    -3.6466   YY=    30.7806   ZY=    -0.3321
   XZ=    -6.7551   YZ=    -1.1502   ZZ=    27.9344
   Eigenvalues:    24.0724    30.7178    41.5765
     89  H    Isotropic =    32.7752   Anisotropy =     8.6285
   XX=    28.8752   YX=     2.9746   ZX=     1.1269
   XY=     2.3963   YY=    32.8783   ZY=     4.2450
   XZ=    -1.4126   YZ=     2.0233   ZZ=    36.5722
   Eigenvalues:    27.2427    32.5554    38.5276
     90  H    Isotropic =    32.4070   Anisotropy =    13.1038
   XX=    27.7126   YX=    -0.9438   ZX=     1.1578
   XY=    -1.2294   YY=    29.1872   ZY=    -2.2554
   XZ=     1.0297   YZ=    -3.4643   ZZ=    40.3214
   Eigenvalues:    27.1224    28.9558    41.1429
     91  H    Isotropic =    32.2486   Anisotropy =    15.5911
   XX=    37.3123   YX=     4.5147   ZX=    -6.2272
   XY=     4.2284   YY=    30.8834   ZY=    -2.4518
   XZ=    -6.0827   YZ=    -2.5654   ZZ=    28.5501
   Eigenvalues:    25.3629    28.7402    42.6426
     92  H    Isotropic =    30.6947   Anisotropy =    12.6066
   XX=    34.4250   YX=    -1.2419   ZX=     5.0125
   XY=    -3.3706   YY=    29.7438   ZY=    -4.6675
   XZ=     5.4223   YZ=    -3.4568   ZZ=    27.9152
   Eigenvalues:    23.7834    29.2015    39.0990
     93  H    Isotropic =    30.8894   Anisotropy =    12.6539
   XX=    34.5854   YX=    -2.2708   ZX=    -4.8822
   XY=    -3.8795   YY=    31.4877   ZY=     2.8181
   XZ=    -5.5712   YZ=     3.1597   ZZ=    26.5949
   Eigenvalues:    23.7447    29.5981    39.3253
     94  H    Isotropic =    32.2928   Anisotropy =    17.6107
   XX=    28.2337   YX=    -1.8620   ZX=    -0.9680
   XY=    -1.6482   YY=    43.8222   ZY=    -0.6337
   XZ=    -0.8188   YZ=    -0.6758   ZZ=    24.8225
   Eigenvalues:    24.5430    28.3021    44.0333
     95  H    Isotropic =    32.5573   Anisotropy =     9.9944
   XX=    29.9427   YX=     0.5666   ZX=     3.7371
   XY=     0.1604   YY=    31.8708   ZY=     3.3073
   XZ=     3.7309   YZ=     3.7853   ZZ=    35.8584
   Eigenvalues:    27.6580    30.7937    39.2202
     96  H    Isotropic =    32.4397   Anisotropy =    12.7022
   XX=    28.3988   YX=    -1.8722   ZX=     1.5090
   XY=    -2.1220   YY=    31.6041   ZY=    -5.2734
   XZ=     1.6810   YZ=    -5.2525   ZZ=    37.3161
   Eigenvalues:    27.2826    29.1287    40.9078
     97  H    Isotropic =    32.4011   Anisotropy =    15.1978
   XX=    35.5143   YX=     6.4304   ZX=    -2.7419
   XY=     5.9399   YY=    36.1038   ZY=    -2.0417
   XZ=    -2.0740   YZ=    -1.6578   ZZ=    25.5852
   Eigenvalues:    25.0082    29.6621    42.5329
     98  H    Isotropic =    32.1802   Anisotropy =    13.4304
   XX=    37.3303   YX=     4.5297   ZX=    -3.4807
   XY=     6.8564   YY=    31.4399   ZY=    -0.4067
   XZ=    -2.7526   YZ=     2.6157   ZZ=    27.7705
   Eigenvalues:    25.1583    30.2485    41.1339
     99  H    Isotropic =    33.0482   Anisotropy =    11.1302
   XX=    34.1244   YX=    -3.1790   ZX=     2.9328
   XY=    -1.3844   YY=    28.4331   ZY=    -4.2335
   XZ=     3.4396   YZ=    -3.5898   ZZ=    36.5872
   Eigenvalues:    26.7197    31.9566    40.4684
    100  H    Isotropic =    31.5400   Anisotropy =     7.9976
   XX=    31.2229   YX=     1.1817   ZX=     2.5253
   XY=     1.6899   YY=    29.2980   ZY=     2.1213
   XZ=     2.5708   YZ=     3.4247   ZZ=    34.0991
   Eigenvalues:    28.0013    29.7470    36.8717
    101  H    Isotropic =    31.2049   Anisotropy =    13.9273
   XX=    35.4426   YX=    -1.6959   ZX=    -5.0702
   XY=    -0.9290   YY=    26.1331   ZY=     0.8506
   XZ=    -7.5724   YZ=     1.3320   ZZ=    32.0390
   Eigenvalues:    25.9269    27.1980    40.4898
    102  H    Isotropic =    31.6417   Anisotropy =     8.8505
   XX=    29.2156   YX=    -1.8688   ZX=     0.1141
   XY=    -2.7468   YY=    30.8416   ZY=     3.4294
   XZ=     0.3861   YZ=     4.7496   ZZ=    34.8679
   Eigenvalues:    26.5775    30.8056    37.5420
    103  H    Isotropic =    32.1863   Anisotropy =    15.0369
   XX=    37.5890   YX=     6.4803   ZX=     1.7728
   XY=     5.8973   YY=    33.6177   ZY=    -0.8006
   XZ=     2.3473   YZ=    -0.2958   ZZ=    25.3523
   Eigenvalues:    24.6350    29.7130    42.2110
    104  H    Isotropic =    31.1552   Anisotropy =    13.1244
   XX=    39.6626   YX=    -2.3086   ZX=     0.0610
   XY=    -0.9729   YY=    27.8333   ZY=    -1.5809
   XZ=     0.6770   YZ=    -0.5628   ZZ=    25.9696
   Eigenvalues:    25.4722    28.0885    39.9048
    105  H    Isotropic =    30.5123   Anisotropy =    12.2690
   XX=    29.2095   YX=    -5.2791   ZX=     2.5042
   XY=    -5.4195   YY=    33.0078   ZY=    -2.7851
   XZ=     3.3656   YZ=    -3.4040   ZZ=    29.3196
   Eigenvalues:    25.2815    27.5637    38.6916
    106  H    Isotropic =    30.6761   Anisotropy =     7.4355
   XX=    32.3043   YX=     1.9583   ZX=    -2.1577
   XY=     1.2158   YY=    27.5361   ZY=    -3.5145
   XZ=    -1.2698   YZ=    -3.5263   ZZ=    32.1878
   Eigenvalues:    25.5865    30.8086    35.6331
    107  H    Isotropic =    30.5833   Anisotropy =    11.6484
   XX=    28.7738   YX=     0.8630   ZX=     4.9466
   XY=     1.6361   YY=    28.5635   ZY=     2.6259
   XZ=     5.5808   YZ=     2.3354   ZZ=    34.4126
   Eigenvalues:    25.6043    27.7966    38.3489
    108  H    Isotropic =    30.9362   Anisotropy =    11.0007
   XX=    37.3287   YX=    -1.3648   ZX=     3.7665
   XY=    -1.6206   YY=    29.4509   ZY=     2.1923
   XZ=     2.6632   YZ=     2.3000   ZZ=    26.0290
   Eigenvalues:    23.9760    30.5626    38.2700
    109  H    Isotropic =    30.6789   Anisotropy =    14.5561
   XX=    28.7461   YX=    -4.3706   ZX=     2.4555
   XY=    -4.1599   YY=    38.0304   ZY=    -2.6065
   XZ=     1.8503   YZ=    -2.6330   ZZ=    25.2601
   Eigenvalues:    24.2034    27.4503    40.3830
    110  H    Isotropic =    31.8682   Anisotropy =    12.0644
   XX=    31.3757   YX=    -3.9330   ZX=    -3.6024
   XY=    -3.3333   YY=    30.4179   ZY=     3.5384
   XZ=    -5.4179   YZ=     3.4918   ZZ=    33.8111
   Eigenvalues:    27.1828    28.5107    39.9112
 End of Minotr F.D. properties file   721 does not exist.
 End of Minotr F.D. properties file   722 does not exist.
 End of Minotr F.D. properties file   788 does not exist.
 Hyperfine terms turned off by default for NAtoms > 100.

 **********************************************************************

            Population analysis using the SCF Density.

 **********************************************************************

 Orbital symmetries:
       Occupied  (A) (A) (A) (A) (A) (A) (A) (A) (A) (A) (A) (A)
                 (A) (A) (A) (A) (A) (A) (A) (A) (A) (A) (A) (A)
                 (A) (A) (A) (A) (A) (A) (A) (A) (A) (A) (A) (A)
                 (A) (A) (A) (A) (A) (A) (A) (A) (A) (A) (A) (A)
                 (A) (A) (A) (A) (A) (A) (A) (A) (A) (A) (A) (A)
                 (A) (A) (A) (A) (A) (A) (A) (A) (A) (A) (A) (A)
                 (A) (A) (A) (A) (A) (A) (A) (A) (A) (A) (A) (A)
                 (A) (A) (A) (A) (A) (A) (A) (A) (A) (A) (A) (A)
                 (A) (A) (A) (A) (A) (A) (A) (A) (A) (A) (A) (A)
                 (A) (A) (A) (A) (A) (A) (A) (A) (A) (A) (A) (A)
                 (A) (A) (A) (A) (A) (A) (A) (A) (A) (A) (A) (A)
                 (A) (A) (A) (A) (A) (A) (A) (A) (A) (A) (A) (A)
                 (A) (A) (A) (A) (A) (A) (A) (A) (A) (A) (A) (A)
                 (A) (A) (A) (A) (A) (A) (A) (A) (A) (A) (A) (A)
                 (A) (A) (A) (A) (A) (A) (A) (A) (A) (A) (A) (A)
                 (A) (A) (A) (A) (A) (A) (A) (A) (A) (A) (A) (A)
                 (A) (A) (A) (A) (A)
       Virtual   (A) (A) (A) (A) (A) (A) (A) (A) (A) (A) (A) (A)
                 (A) (A) (A) (A) (A) (A) (A) (A) (A) (A) (A) (A)
                 (A) (A) (A) (A) (A) (A) (A) (A) (A) (A) (A) (A)
                 (A) (A) (A) (A) (A) (A) (A) (A) (A) (A) (A) (A)
                 (A) (A) (A) (A) (A) (A) (A) (A) (A) (A) (A) (A)
                 (A) (A) (A) (A) (A) (A) (A) (A) (A) (A) (A) (A)
                 (A) (A) (A) (A) (A) (A) (A) (A) (A) (A) (A) (A)
                 (A) (A) (A) (A) (A) (A) (A) (A) (A) (A) (A) (A)
                 (A) (A) (A) (A) (A) (A) (A) (A) (A) (A) (A) (A)
                 (A) (A) (A) (A) (A) (A) (A) (A) (A) (A) (A) (A)
                 (A) (A) (A) (A) (A) (A) (A) (A) (A)
 The electronic state is 1-A.
 Alpha  occ. eigenvalues --  -20.31359 -20.29680 -20.25239 -20.23573 -19.92054
 Alpha  occ. eigenvalues --  -15.48102 -15.33777 -15.32276 -15.28866 -11.17280
 Alpha  occ. eigenvalues --  -11.15481 -11.11054 -11.10198 -11.09765 -11.09573
 Alpha  occ. eigenvalues --  -11.09288 -11.08976 -11.08192 -11.07955 -11.07407
 Alpha  occ. eigenvalues --  -11.07245 -11.06999 -11.06840 -11.06359 -11.05926
 Alpha  occ. eigenvalues --  -11.05706 -11.05446 -11.05336 -11.05184 -11.05131
 Alpha  occ. eigenvalues --  -11.05125 -11.05050 -11.04762 -11.04653 -11.04204
 Alpha  occ. eigenvalues --  -11.04134 -11.03669 -11.03387 -11.03031 -11.02680
 Alpha  occ. eigenvalues --  -11.02620 -11.02352 -11.02287 -11.01971 -11.01357
 Alpha  occ. eigenvalues --  -11.01290 -11.01176 -11.00890 -11.00872 -11.00744
 Alpha  occ. eigenvalues --  -11.00493 -11.00370 -11.00120 -11.00106  -1.38537
 Alpha  occ. eigenvalues --   -1.36890  -1.28549  -1.28353  -1.26664  -1.21279
 Alpha  occ. eigenvalues --   -1.19991  -1.17277  -1.12065  -1.08341  -1.07902
 Alpha  occ. eigenvalues --   -1.06768  -1.06137  -1.03671  -1.03294  -1.00770
 Alpha  occ. eigenvalues --   -0.99626  -0.98686  -0.97733  -0.97057  -0.96522
 Alpha  occ. eigenvalues --   -0.95334  -0.94857  -0.93096  -0.92941  -0.92328
 Alpha  occ. eigenvalues --   -0.91852  -0.90663  -0.90381  -0.89155  -0.87628
 Alpha  occ. eigenvalues --   -0.85999  -0.84038  -0.83067  -0.82103  -0.80807
 Alpha  occ. eigenvalues --   -0.80495  -0.79013  -0.78400  -0.77909  -0.76195
 Alpha  occ. eigenvalues --   -0.75875  -0.74516  -0.72666  -0.72463  -0.71495
 Alpha  occ. eigenvalues --   -0.70489  -0.70352  -0.68912  -0.68170  -0.67032
 Alpha  occ. eigenvalues --   -0.65944  -0.64653  -0.64096  -0.63463  -0.62976
 Alpha  occ. eigenvalues --   -0.62221  -0.62000  -0.61813  -0.61040  -0.60965
 Alpha  occ. eigenvalues --   -0.59909  -0.59867  -0.59499  -0.59084  -0.58502
 Alpha  occ. eigenvalues --   -0.58259  -0.57744  -0.57420  -0.57092  -0.56772
 Alpha  occ. eigenvalues --   -0.56645  -0.56061  -0.55882  -0.55460  -0.55386
 Alpha  occ. eigenvalues --   -0.55191  -0.54455  -0.54359  -0.53875  -0.53516
 Alpha  occ. eigenvalues --   -0.53300  -0.52826  -0.52436  -0.52307  -0.52103
 Alpha  occ. eigenvalues --   -0.51674  -0.51006  -0.50671  -0.50522  -0.49965
 Alpha  occ. eigenvalues --   -0.49640  -0.49562  -0.48852  -0.48490  -0.48329
 Alpha  occ. eigenvalues --   -0.48213  -0.47718  -0.47416  -0.47073  -0.46793
 Alpha  occ. eigenvalues --   -0.46423  -0.46294  -0.45974  -0.45442  -0.45273
 Alpha  occ. eigenvalues --   -0.44910  -0.44491  -0.44083  -0.43681  -0.43602
 Alpha  occ. eigenvalues --   -0.43302  -0.42959  -0.42518  -0.42291  -0.42183
 Alpha  occ. eigenvalues --   -0.41639  -0.41228  -0.41153  -0.40825  -0.40522
 Alpha  occ. eigenvalues --   -0.40027  -0.39557  -0.39149  -0.38804  -0.37736
 Alpha  occ. eigenvalues --   -0.36938  -0.35866  -0.35686  -0.34979  -0.34593
 Alpha  occ. eigenvalues --   -0.33913  -0.33065  -0.32372  -0.32304  -0.30849
 Alpha  occ. eigenvalues --   -0.26365  -0.25712  -0.24520  -0.20949  -0.19459
 Alpha  occ. eigenvalues --   -0.15953  -0.15780
 Alpha virt. eigenvalues --    0.27397   0.28139   0.28580   0.29713   0.30193
 Alpha virt. eigenvalues --    0.31492   0.46543   0.47207   0.49153   0.49928
 Alpha virt. eigenvalues --    0.50201   0.50418   0.50633   0.51602   0.52702
 Alpha virt. eigenvalues --    0.53674   0.54227   0.55546   0.55609   0.56628
 Alpha virt. eigenvalues --    0.57044   0.58162   0.58461   0.58612   0.59277
 Alpha virt. eigenvalues --    0.59502   0.60238   0.60852   0.61236   0.61608
 Alpha virt. eigenvalues --    0.61985   0.62300   0.62671   0.62873   0.63304
 Alpha virt. eigenvalues --    0.63628   0.63918   0.64313   0.64417   0.64570
 Alpha virt. eigenvalues --    0.64750   0.65219   0.65478   0.65557   0.65707
 Alpha virt. eigenvalues --    0.66321   0.66367   0.66815   0.67046   0.67117
 Alpha virt. eigenvalues --    0.67726   0.68294   0.68405   0.68794   0.69032
 Alpha virt. eigenvalues --    0.69095   0.69484   0.69624   0.69872   0.70039
 Alpha virt. eigenvalues --    0.70309   0.70521   0.70808   0.71093   0.71487
 Alpha virt. eigenvalues --    0.71810   0.71922   0.72196   0.72409   0.72733
 Alpha virt. eigenvalues --    0.73125   0.73404   0.73811   0.73946   0.74271
 Alpha virt. eigenvalues --    0.74835   0.75050   0.75160   0.75376   0.75619
 Alpha virt. eigenvalues --    0.75701   0.75974   0.76298   0.76444   0.76725
 Alpha virt. eigenvalues --    0.77090   0.77304   0.77510   0.77676   0.78121
 Alpha virt. eigenvalues --    0.78438   0.78617   0.78839   0.79356   0.79478
 Alpha virt. eigenvalues --    0.79902   0.80413   0.80576   0.80959   0.81416
 Alpha virt. eigenvalues --    0.81441   0.81903   0.82000   0.82730   0.82953
 Alpha virt. eigenvalues --    0.83334   0.83925   0.84372   0.84776   0.85565
 Alpha virt. eigenvalues --    0.86103   0.86609   0.87836   0.88071   0.88722
 Alpha virt. eigenvalues --    0.88969   0.90847   0.91530   0.93001   0.94769
 Alpha virt. eigenvalues --    0.95258   0.96407   0.98862   1.00699   1.02413
 Alpha virt. eigenvalues --    1.11568   1.12848   1.16490   1.17481
          Condensed to atoms (all electrons):
 Mulliken charges:
               1
     1  C   -0.070163
     2  C    0.000262
     3  C   -0.063330
     4  C   -0.090777
     5  C    0.087924
     6  C   -0.009459
     7  N   -0.286149
     8  C    0.018635
     9  C    0.127120
    10  C    0.037368
    11  C   -0.114678
    12  C   -0.108808
    13  C    0.029516
    14  N   -0.291803
    15  C   -0.013704
    16  C   -0.107765
    17  C   -0.102027
    18  C   -0.104588
    19  C   -0.019138
    20  C   -0.110588
    21  C   -0.066420
    22  C    0.319410
    23  O   -0.278037
    24  O   -0.255659
    25  C   -0.055650
    26  C   -0.079323
    27  C   -0.109119
    28  C    0.000507
    29  C   -0.072672
    30  C   -0.061350
    31  C   -0.092201
    32  C    0.087689
    33  C   -0.015579
    34  N   -0.287964
    35  C    0.021051
    36  C    0.128764
    37  C    0.040843
    38  C   -0.115720
    39  C   -0.104849
    40  C    0.028187
    41  N   -0.085301
    42  C   -0.007617
    43  C   -0.110774
    44  C   -0.102203
    45  C   -0.106576
    46  C   -0.012190
    47  C   -0.111642
    48  C   -0.067180
    49  C    0.320525
    50  O   -0.279183
    51  O   -0.253925
    52  C   -0.055679
    53  C   -0.078754
    54  O   -0.456263
    55  H    0.068549
    56  H    0.053806
    57  H    0.056011
    58  H    0.076790
    59  H    0.046208
    60  H    0.058893
    61  H    0.041545
    62  H    0.066941
    63  H    0.055663
    64  H    0.057984
    65  H    0.050030
    66  H    0.048215
    67  H    0.055042
    68  H    0.046951
    69  H    0.060794
    70  H    0.061769
    71  H    0.054577
    72  H    0.050019
    73  H    0.048466
    74  H    0.065965
    75  H    0.063155
    76  H    0.075923
    77  H    0.071088
    78  H    0.074412
    79  H    0.054725
    80  H    0.069797
    81  H    0.074841
    82  H    0.059318
    83  H    0.055651
    84  H    0.091053
    85  H    0.055549
    86  H    0.056474
    87  H    0.086822
    88  H    0.052839
    89  H    0.058735
    90  H    0.054362
    91  H    0.051548
    92  H    0.088942
    93  H    0.079558
    94  H    0.065851
    95  H    0.057415
    96  H    0.057050
    97  H    0.057525
    98  H    0.082938
    99  H    0.071390
   100  H    0.068360
   101  H    0.087427
   102  H    0.065758
   103  H    0.055038
   104  H    0.067160
   105  H    0.078985
   106  H    0.075685
   107  H    0.072976
   108  H    0.074919
   109  H    0.073372
   110  H    0.056147
 Sum of Mulliken charges =  -0.00000
 Mulliken charges with hydrogens summed into heavy atoms:
               1
     1  C   -0.001614
     2  C    0.000262
     3  C   -0.009524
     4  C   -0.034766
     5  C    0.087924
     6  C   -0.009459
     7  N   -0.286149
     8  C    0.018635
     9  C    0.127120
    10  C    0.114158
    11  C   -0.009577
    12  C   -0.000322
    13  C    0.029516
    14  N   -0.291803
    15  C    0.099943
    16  C   -0.009520
    17  C   -0.000035
    18  C    0.017975
    19  C    0.085458
    20  C    0.003843
    21  C   -0.003266
    22  C    0.319410
    23  O   -0.278037
    24  O   -0.255659
    25  C    0.165772
    26  C    0.120040
    27  C    0.005851
    28  C    0.000507
    29  C    0.018382
    30  C   -0.005801
    31  C   -0.035728
    32  C    0.087689
    33  C   -0.015579
    34  N   -0.287964
    35  C    0.021051
    36  C    0.128764
    37  C    0.127665
    38  C   -0.004146
    39  C    0.001062
    40  C    0.028187
    41  N   -0.085301
    42  C    0.160883
    43  C    0.012493
    44  C    0.012372
    45  C    0.047752
    46  C    0.143596
    47  C    0.009155
    48  C   -0.000020
    49  C    0.320525
    50  O   -0.279183
    51  O   -0.253925
    52  C    0.171967
    53  C    0.125685
    54  O   -0.456263
 Electronic spatial extent (au):  <R**2>=          37815.5491
 Charge=              0.0000 electrons
 Dipole moment (field-independent basis, Debye):
    X=              5.6370    Y=              1.6715    Z=              2.0794  Tot=              6.2365
 Quadrupole moment (field-independent basis, Debye-Ang):
   XX=           -275.7826   YY=           -288.9581   ZZ=           -297.0417
   XY=              7.9746   XZ=            -10.2114   YZ=             -3.4490
 Traceless Quadrupole moment (field-independent basis, Debye-Ang):
   XX=             11.4782   YY=             -1.6973   ZZ=             -9.7809
   XY=              7.9746   XZ=            -10.2114   YZ=             -3.4490
 Octapole moment (field-independent basis, Debye-Ang**2):
  XXX=            173.8618  YYY=             27.9108  ZZZ=             54.8048  XYY=             27.7055
  XXY=            -32.5713  XXZ=             74.0253  XZZ=              2.2710  YZZ=            -14.2366
  YYZ=             16.1501  XYZ=            -14.3245
 Hexadecapole moment (field-independent basis, Debye-Ang**3):
 XXXX=         -32404.5635 YYYY=          -8960.6428 ZZZZ=          -4593.5998 XXXY=            445.1394
 XXXZ=           -184.3751 YYYX=             41.1780 YYYZ=            -65.0244 ZZZX=            147.0715
 ZZZY=           -116.2534 XXYY=          -6915.4024 XXZZ=          -6139.8297 YYZZ=          -2270.0593
 XXYZ=           -171.1696 YYXZ=             -2.1825 ZZXY=            -91.3723
 N-N= 8.145015977399D+03 E-N=-2.166790022126D+04  KE= 2.279180977424D+03
 ******************************Gaussian NBO Version 3.1******************************
             N A T U R A L   A T O M I C   O R B I T A L   A N D
          N A T U R A L   B O N D   O R B I T A L   A N A L Y S I S
 ******************************Gaussian NBO Version 3.1******************************
       /RESON  / : Allow strongly delocalized NBO set
       /NLMO   / : Form Natural Localized Molecular Orbitals
       /NMR /    : Analyze NMR Sheilding Tensor 

 Analyzing the SCF density

 Job title: pleiokomenine_C_1a                                              

 Storage needed:    355564 in NPA,    438187 in NBO,   2133784 in NLMO ( 104796000 available)
 GSVD:  LWork=     -108884 too small for GESVD, short by      536270 words or      536270 for optimal perf.


 NATURAL POPULATIONS:  Natural atomic orbital occupancies 
                                                          
   NAO  Atom  No  lang   Type(AO)    Occupancy      Energy
 ----------------------------------------------------------
     1    C    1  S      Cor( 1S)     1.99993     -10.92847
     2    C    1  S      Val( 2S)     1.08011      -0.15924
     3    C    1  px     Val( 2p)     0.99599       0.10612
     4    C    1  py     Val( 2p)     0.98197       0.15575
     5    C    1  pz     Val( 2p)     0.99358       0.11398
 
     6    C    2  S      Cor( 1S)     1.99990     -10.93998
     7    C    2  S      Val( 2S)     1.07678      -0.16672
     8    C    2  px     Val( 2p)     0.96199       0.12678
     9    C    2  py     Val( 2p)     0.96895       0.16937
    10    C    2  pz     Val( 2p)     0.97921       0.11731
 
    11    C    3  S      Cor( 1S)     1.99994     -10.93293
    12    C    3  S      Val( 2S)     1.08251      -0.16708
    13    C    3  px     Val( 2p)     0.98719       0.10902
    14    C    3  py     Val( 2p)     0.98211       0.15105
    15    C    3  pz     Val( 2p)     0.98323       0.11557
 
    16    C    4  S      Cor( 1S)     1.99993     -10.92665
    17    C    4  S      Val( 2S)     1.07134      -0.15890
    18    C    4  px     Val( 2p)     1.01663       0.09547
    19    C    4  py     Val( 2p)     0.98444       0.15556
    20    C    4  pz     Val( 2p)     1.01542       0.10424
 
    21    C    5  S      Cor( 1S)     1.99985     -10.97250
    22    C    5  S      Val( 2S)     1.06050      -0.17035
    23    C    5  px     Val( 2p)     0.91242       0.11570
    24    C    5  py     Val( 2p)     0.97871       0.15447
    25    C    5  pz     Val( 2p)     0.93718       0.11709
 
    26    C    6  S      Cor( 1S)     1.99990     -10.93043
    27    C    6  S      Val( 2S)     1.08293      -0.17034
    28    C    6  px     Val( 2p)     0.98700       0.12011
    29    C    6  py     Val( 2p)     0.96233       0.14677
    30    C    6  pz     Val( 2p)     0.98826       0.12757
 
    31    N    7  S      Cor( 1S)     1.99998     -15.25556
    32    N    7  S      Val( 2S)     1.41119      -0.58376
    33    N    7  px     Val( 2p)     1.60721      -0.18208
    34    N    7  py     Val( 2p)     1.10094       0.01374
    35    N    7  pz     Val( 2p)     1.15535       0.00172
 
    36    C    8  S      Cor( 1S)     1.99996     -10.99000
    37    C    8  S      Val( 2S)     1.10858      -0.21471
    38    C    8  px     Val( 2p)     0.97582       0.09529
    39    C    8  py     Val( 2p)     0.95852       0.12911
    40    C    8  pz     Val( 2p)     0.93731       0.12176
 
    41    C    9  S      Cor( 1S)     1.99996     -11.03524
    42    C    9  S      Val( 2S)     1.11325      -0.24253
    43    C    9  px     Val( 2p)     0.93595       0.09786
    44    C    9  py     Val( 2p)     0.82400       0.14674
    45    C    9  pz     Val( 2p)     0.95592       0.09266
 
    46    C   10  S      Cor( 1S)     1.99993     -10.99696
    47    C   10  S      Val( 2S)     1.09847      -0.19961
    48    C   10  px     Val( 2p)     1.00179       0.10291
    49    C   10  py     Val( 2p)     0.94841       0.10350
    50    C   10  pz     Val( 2p)     0.88068       0.14435
 
    51    C   11  S      Cor( 1S)     1.99994     -10.96411
    52    C   11  S      Val( 2S)     1.10373      -0.19833
    53    C   11  px     Val( 2p)     0.99481       0.09935
    54    C   11  py     Val( 2p)     0.98474       0.10174
    55    C   11  pz     Val( 2p)     1.00121       0.10053
 
    56    C   12  S      Cor( 1S)     1.99996     -10.95842
    57    C   12  S      Val( 2S)     1.09165      -0.18106
    58    C   12  px     Val( 2p)     1.01646       0.10356
    59    C   12  py     Val( 2p)     0.97316       0.11085
    60    C   12  pz     Val( 2p)     0.99643       0.10750
 
    61    C   13  S      Cor( 1S)     1.99998     -10.98775
    62    C   13  S      Val( 2S)     1.10439      -0.21068
    63    C   13  px     Val( 2p)     0.93885       0.12533
    64    C   13  py     Val( 2p)     0.95259       0.12406
    65    C   13  pz     Val( 2p)     0.95213       0.12074
 
    66    N   14  S      Cor( 1S)     1.99999     -15.22153
    67    N   14  S      Val( 2S)     1.41961      -0.56259
    68    N   14  px     Val( 2p)     1.26628      -0.02271
    69    N   14  py     Val( 2p)     1.18191       0.01346
    70    N   14  pz     Val( 2p)     1.41254      -0.08266
 
    71    C   15  S      Cor( 1S)     1.99994     -10.99428
    72    C   15  S      Val( 2S)     1.06857      -0.17489
    73    C   15  px     Val( 2p)     1.02886       0.08602
    74    C   15  py     Val( 2p)     0.87570       0.14016
    75    C   15  pz     Val( 2p)     0.98726       0.09862
 
    76    C   16  S      Cor( 1S)     1.99997     -10.96404
    77    C   16  S      Val( 2S)     1.08087      -0.17739
    78    C   16  px     Val( 2p)     1.00679       0.10471
    79    C   16  py     Val( 2p)     1.00188       0.10107
    80    C   16  pz     Val( 2p)     0.98418       0.10402
 
    81    C   17  S      Cor( 1S)     1.99996     -10.96500
    82    C   17  S      Val( 2S)     1.08583      -0.18042
    83    C   17  px     Val( 2p)     1.01099       0.10199
    84    C   17  py     Val( 2p)     0.98232       0.10571
    85    C   17  pz     Val( 2p)     0.98920       0.10613
 
    86    C   18  S      Cor( 1S)     1.99995     -10.96160
    87    C   18  S      Val( 2S)     1.09189      -0.18196
    88    C   18  px     Val( 2p)     0.99855       0.10801
    89    C   18  py     Val( 2p)     0.98882       0.10655
    90    C   18  pz     Val( 2p)     0.99497       0.10165
 
    91    C   19  S      Cor( 1S)     1.99994     -10.98579
    92    C   19  S      Val( 2S)     1.07081      -0.16957
    93    C   19  px     Val( 2p)     0.90372       0.14010
    94    C   19  py     Val( 2p)     0.97185       0.09729
    95    C   19  pz     Val( 2p)     1.01962       0.09566
 
    96    C   20  S      Cor( 1S)     1.99993     -10.97099
    97    C   20  S      Val( 2S)     1.09963      -0.19891
    98    C   20  px     Val( 2p)     0.99633       0.09453
    99    C   20  py     Val( 2p)     0.95813       0.10488
   100    C   20  pz     Val( 2p)     1.01978       0.09097
 
   101    C   21  S      Cor( 1S)     1.99994     -10.99636
   102    C   21  S      Val( 2S)     1.11089      -0.22700
   103    C   21  px     Val( 2p)     0.97070       0.09100
   104    C   21  py     Val( 2p)     0.98822       0.08132
   105    C   21  pz     Val( 2p)     1.01461       0.07748
 
   106    C   22  S      Cor( 1S)     1.99991     -11.10191
   107    C   22  S      Val( 2S)     1.05565      -0.25121
   108    C   22  px     Val( 2p)     0.90341       0.10253
   109    C   22  py     Val( 2p)     0.81131       0.10657
   110    C   22  pz     Val( 2p)     0.82652       0.09657
 
   111    O   23  S      Cor( 1S)     1.99999     -20.08844
   112    O   23  S      Val( 2S)     1.80814      -1.04846
   113    O   23  px     Val( 2p)     1.61882      -0.22048
   114    O   23  py     Val( 2p)     1.55390      -0.20807
   115    O   23  pz     Val( 2p)     1.33145      -0.12371
 
   116    O   24  S      Cor( 1S)     1.99999     -20.20622
   117    O   24  S      Val( 2S)     1.73020      -1.01900
   118    O   24  px     Val( 2p)     1.38109      -0.16193
   119    O   24  py     Val( 2p)     1.47822      -0.20115
   120    O   24  pz     Val( 2p)     1.67783      -0.29442
 
   121    C   25  S      Cor( 1S)     1.99984     -11.03796
   122    C   25  S      Val( 2S)     1.07670      -0.21948
   123    C   25  px     Val( 2p)     0.84765       0.08879
   124    C   25  py     Val( 2p)     1.00959       0.04855
   125    C   25  pz     Val( 2p)     1.03154       0.04850
 
   126    C   26  S      Cor( 1S)     1.99992     -11.00421
   127    C   26  S      Val( 2S)     1.06536      -0.18512
   128    C   26  px     Val( 2p)     1.03323       0.07182
   129    C   26  py     Val( 2p)     1.01764       0.06841
   130    C   26  pz     Val( 2p)     0.90065       0.10648
 
   131    C   27  S      Cor( 1S)     1.99996     -10.97054
   132    C   27  S      Val( 2S)     1.08227      -0.17507
   133    C   27  px     Val( 2p)     0.98038       0.10868
   134    C   27  py     Val( 2p)     1.02632       0.09754
   135    C   27  pz     Val( 2p)     0.99685       0.10403
 
   136    C   28  S      Cor( 1S)     1.99990     -10.94643
   137    C   28  S      Val( 2S)     1.07915      -0.17397
   138    C   28  px     Val( 2p)     0.94620       0.15911
   139    C   28  py     Val( 2p)     0.96082       0.17848
   140    C   28  pz     Val( 2p)     0.99941       0.05919
 
   141    C   29  S      Cor( 1S)     1.99993     -10.93403
   142    C   29  S      Val( 2S)     1.08560      -0.16763
   143    C   29  px     Val( 2p)     0.98357       0.14786
   144    C   29  py     Val( 2p)     0.99112       0.15708
   145    C   29  pz     Val( 2p)     0.99149       0.05539
 
   146    C   30  S      Cor( 1S)     1.99994     -10.94061
   147    C   30  S      Val( 2S)     1.08406      -0.17496
   148    C   30  px     Val( 2p)     0.97394       0.14878
   149    C   30  py     Val( 2p)     0.97645       0.15717
   150    C   30  pz     Val( 2p)     0.99793       0.04861
 
   151    C   31  S      Cor( 1S)     1.99993     -10.93430
   152    C   31  S      Val( 2S)     1.07102      -0.16700
   153    C   31  px     Val( 2p)     0.99819       0.13477
   154    C   31  py     Val( 2p)     0.97587       0.16002
   155    C   31  pz     Val( 2p)     1.04530       0.03554
 
   156    C   32  S      Cor( 1S)     1.99986     -10.98343
   157    C   32  S      Val( 2S)     1.05936      -0.18045
   158    C   32  px     Val( 2p)     0.89816       0.14931
   159    C   32  py     Val( 2p)     0.98082       0.15159
   160    C   32  pz     Val( 2p)     0.95065       0.05262
 
   161    C   33  S      Cor( 1S)     1.99990     -10.94159
   162    C   33  S      Val( 2S)     1.08135      -0.18212
   163    C   33  px     Val( 2p)     0.98478       0.15335
   164    C   33  py     Val( 2p)     0.94988       0.14530
   165    C   33  pz     Val( 2p)     1.01447       0.05658
 
   166    N   34  S      Cor( 1S)     1.99998     -15.26981
   167    N   34  S      Val( 2S)     1.40349      -0.59532
   168    N   34  px     Val( 2p)     1.07341       0.02054
   169    N   34  py     Val( 2p)     1.07874       0.00849
   170    N   34  pz     Val( 2p)     1.72093      -0.24492
 
   171    C   35  S      Cor( 1S)     1.99996     -11.01963
   172    C   35  S      Val( 2S)     1.11070      -0.24468
   173    C   35  px     Val( 2p)     0.94859       0.08353
   174    C   35  py     Val( 2p)     0.95138       0.10479
   175    C   35  pz     Val( 2p)     0.96700       0.07718
 
   176    C   36  S      Cor( 1S)     1.99996     -11.05735
   177    C   36  S      Val( 2S)     1.11151      -0.26286
   178    C   36  px     Val( 2p)     0.94651       0.07520
   179    C   36  py     Val( 2p)     0.83197       0.12206
   180    C   36  pz     Val( 2p)     0.93853       0.07435
 
   181    C   37  S      Cor( 1S)     1.99991     -11.04205
   182    C   37  S      Val( 2S)     1.12090      -0.26354
   183    C   37  px     Val( 2p)     0.89286       0.09206
   184    C   37  py     Val( 2p)     0.95088       0.05742
   185    C   37  pz     Val( 2p)     0.96200       0.06406
 
   186    C   38  S      Cor( 1S)     1.99994     -10.98786
   187    C   38  S      Val( 2S)     1.10445      -0.22281
   188    C   38  px     Val( 2p)     1.01893       0.07326
   189    C   38  py     Val( 2p)     0.97839       0.08060
   190    C   38  pz     Val( 2p)     0.98458       0.07540
 
   191    C   39  S      Cor( 1S)     1.99995     -10.99027
   192    C   39  S      Val( 2S)     1.09228      -0.21296
   193    C   39  px     Val( 2p)     1.01121       0.07364
   194    C   39  py     Val( 2p)     0.97857       0.07760
   195    C   39  pz     Val( 2p)     0.99072       0.07937
 
   196    C   40  S      Cor( 1S)     1.99998     -11.02515
   197    C   40  S      Val( 2S)     1.10505      -0.24808
   198    C   40  px     Val( 2p)     0.93788       0.08977
   199    C   40  py     Val( 2p)     0.94880       0.09034
   200    C   40  pz     Val( 2p)     0.95824       0.07861
 
   201    N   41  S      Cor( 1S)     1.99999     -15.41953
   202    N   41  S      Val( 2S)     1.40124      -0.66257
   203    N   41  px     Val( 2p)     1.26147      -0.13170
   204    N   41  py     Val( 2p)     1.15356      -0.10029
   205    N   41  pz     Val( 2p)     1.15677      -0.10414
 
   206    C   42  S      Cor( 1S)     1.99991     -11.03709
   207    C   42  S      Val( 2S)     1.08950      -0.23422
   208    C   42  px     Val( 2p)     0.99687       0.05680
   209    C   42  py     Val( 2p)     0.81886       0.09783
   210    C   42  pz     Val( 2p)     1.05120       0.03936
 
   211    C   43  S      Cor( 1S)     1.99997     -11.00038
   212    C   43  S      Val( 2S)     1.07894      -0.21120
   213    C   43  px     Val( 2p)     0.98115       0.06968
   214    C   43  py     Val( 2p)     1.01322       0.06014
   215    C   43  pz     Val( 2p)     1.00789       0.06843
 
   216    C   44  S      Cor( 1S)     1.99996     -10.99704
   217    C   44  S      Val( 2S)     1.08474      -0.21172
   218    C   44  px     Val( 2p)     1.00861       0.06858
   219    C   44  py     Val( 2p)     0.97927       0.07394
   220    C   44  pz     Val( 2p)     0.99729       0.07313
 
   221    C   45  S      Cor( 1S)     1.99994     -10.98971
   222    C   45  S      Val( 2S)     1.09383      -0.21039
   223    C   45  px     Val( 2p)     1.02892       0.06871
   224    C   45  py     Val( 2p)     0.97568       0.08230
   225    C   45  pz     Val( 2p)     0.98247       0.08390
 
   226    C   46  S      Cor( 1S)     1.99992     -11.02967
   227    C   46  S      Val( 2S)     1.09073      -0.22823
   228    C   46  px     Val( 2p)     1.03051       0.05480
   229    C   46  py     Val( 2p)     0.98089       0.05803
   230    C   46  pz     Val( 2p)     0.85968       0.08951
 
   231    C   47  S      Cor( 1S)     1.99992     -10.99747
   232    C   47  S      Val( 2S)     1.09904      -0.22524
   233    C   47  px     Val( 2p)     1.00846       0.06309
   234    C   47  py     Val( 2p)     0.96567       0.07654
   235    C   47  pz     Val( 2p)     1.00235       0.06902
 
[...]
  104      25.8485        0.4711      25.3774         0.6658      25.1827
  106       0.2197       -1.0065       1.2262        -0.6787       0.8984
  107       0.2705       -1.3345       1.6050        -0.7255       0.9960
 Sum       29.7156       -0.7597      30.4754        -2.2596      31.9752

 Contributions to Isotropic shielding for atom   94 (    32.2928 ppm):
                         Standard Origin              Atomic Origin
 NLMO      Total    Paramagnetic  Diamagnetic   Paramagnetic  Diamagnetic
  102       1.7202       -0.2330       1.9532         0.8202       0.9001
  103       0.1258        1.3927      -1.2669        -0.9241       1.0499
  104       0.3001        1.2103      -0.9102        -0.6204       0.9205
  105       0.6564        2.8751      -2.2187        -0.3790       1.0354
  106      26.0922       -0.2726      26.3648         0.4584      25.6337
  107       1.9290        2.8405      -0.9115         0.1201       1.8089
 Sum       30.8237        7.8129      23.0108        -0.5247      31.3484

 Contributions to Isotropic shielding for atom   95 (    32.5573 ppm):
                         Standard Origin              Atomic Origin
 NLMO      Total    Paramagnetic  Diamagnetic   Paramagnetic  Diamagnetic
   89      -0.3629        0.5239      -0.8868        -1.0094       0.6465
   98      -0.0765       -0.1479       0.0714        -1.1493       1.0728
  100      -0.3185        0.6092      -0.9277        -1.1142       0.7957
  102       1.8549       -1.5132       3.3681         1.0533       0.8016
  105       1.0217        1.6571      -0.6354         0.1302       0.8915
  106       1.8945        3.4339      -1.5394         0.0639       1.8306
  107      26.3038        0.0377      26.2661         0.4581      25.8457
 Sum       30.3169        4.6008      25.7162        -1.5676      31.8845

 Contributions to Isotropic shielding for atom   96 (    32.4397 ppm):
                         Standard Origin              Atomic Origin
 NLMO      Total    Paramagnetic  Diamagnetic   Paramagnetic  Diamagnetic
   89      -0.2709        0.3537      -0.6245        -1.0274       0.7565
   94      -0.1429        0.5785      -0.7214        -1.0097       0.8668
   97       1.8298       -1.2344       3.0642         1.0166       0.8132
  105       1.5755       -0.5096       2.0851         0.6972       0.8783
  108      26.2418        0.2968      25.9450         0.4529      25.7889
  109       1.5004        3.7602      -2.2598        -0.2899       1.7903
 Sum       30.7337        3.2451      27.4886        -0.1604      30.8940

 Contributions to Isotropic shielding for atom   97 (    32.4011 ppm):
                         Standard Origin              Atomic Origin
 NLMO      Total    Paramagnetic  Diamagnetic   Paramagnetic  Diamagnetic
   94      -0.2190        1.4634      -1.6823        -0.9113       0.6924
   97       0.9979        1.2194      -0.2216         0.2266       0.7713
   98      -0.3219        1.4917      -1.8136        -1.3717       1.0498
  105       0.7028        2.4038      -1.7009        -0.2462       0.9491
  106       0.2493        1.0237      -0.7744        -0.7188       0.9682
  108       2.0016        2.7902      -0.7887         0.2251       1.7764
  109      26.4678       -0.4284      26.8963         0.6835      25.7843
  117      -0.0067       -1.0935       1.0868        -0.8556       0.8489
 Sum       29.8718        8.8703      21.0016        -2.9685      32.8404

 Contributions to Isotropic shielding for atom   98 (    32.1802 ppm):
                         Standard Origin              Atomic Origin
 NLMO      Total    Paramagnetic  Diamagnetic   Paramagnetic  Diamagnetic
   71      -0.2341       -1.0862       0.8521        -1.3342       1.1001
   80       0.1572       -1.0431       1.2003        -0.9379       1.0951
   85       1.4654       -0.2091       1.6745         0.6238       0.8417
  110       1.2268       -1.1040       2.3308         0.3293       0.8974
  111      25.4818        0.6001      24.8817         0.3510      25.1308
  112       1.8450        0.5156       1.3294        -0.1637       2.0087
  114      -0.1045       -1.0712       0.9667        -1.1986       1.0941
  121       0.0568       -1.1722       1.2289        -0.7364       0.7932
 Sum       29.8944       -4.5700      34.4644        -3.0666      32.9609

 Contributions to Isotropic shielding for atom   99 (    33.0482 ppm):
                         Standard Origin              Atomic Origin
 NLMO      Total    Paramagnetic  Diamagnetic   Paramagnetic  Diamagnetic
   79       0.4196       -0.7360       1.1555        -0.2149       0.6344
   81       0.2235       -0.8051       1.0285        -0.6161       0.8396
   85       0.5338        1.7383      -1.2045        -0.2036       0.7374
   87      -0.0115       -1.1138       1.1023        -0.8473       0.8359
  110       0.8691        1.3442      -0.4751         0.2132       0.6559
  111       2.2463        0.2770       1.9693         0.3140       1.9323
  112      25.9650        0.0428      25.9222         0.4917      25.4733
  115       0.1013       -1.0220       1.1233        -0.4761       0.5774
  118       0.8438       -1.4724       2.3161         0.0194       0.8243
  120       1.5412       -0.7988       2.3400         0.6272       0.9140
  121      -0.2554       -3.7032       3.4477        -1.2299       0.9745
  123       0.3394       -1.3000       1.6394        -0.4231       0.7624
  125      -0.0440       -1.1666       1.1226        -0.5361       0.4921
  191      -0.7062        1.5841      -2.2904         0.1576      -0.8638
  193      -0.1842        0.8247      -1.0089         0.1793      -0.3635
 Sum       31.8815       -6.3067      38.1882        -2.5446      34.4261

 Contributions to Isotropic shielding for atom  100 (    31.5400 ppm):
                         Standard Origin              Atomic Origin
 NLMO      Total    Paramagnetic  Diamagnetic   Paramagnetic  Diamagnetic
   98       0.1159       -1.2742       1.3900        -0.7546       0.8705
   99      -0.2299        0.4595      -0.6894        -1.1305       0.9006
  100       0.1347        1.2179      -1.0831        -0.4464       0.5812
  107      -0.2622       -2.1975       1.9352        -0.7919       0.5297
  113      26.5394        0.2329      26.3064         0.9945      25.5448
  114       1.7646        0.8232       0.9414        -0.1356       1.9002
  115       0.0933       -0.9307       1.0240        -0.5131       0.6064
  116      -0.5481       -2.6882       2.1401        -0.5735       0.0254
  121       0.2067       -1.7834       1.9901        -0.7706       0.9773
  191      -0.5911        1.0657      -1.6568         0.3030      -0.8941
 Sum       27.2232       -5.0747      32.2979        -3.8188      31.0420

 Contributions to Isotropic shielding for atom  101 (    31.2049 ppm):
                         Standard Origin              Atomic Origin
 NLMO      Total    Paramagnetic  Diamagnetic   Paramagnetic  Diamagnetic
  100       1.5316       -0.5442       2.0758         0.6706       0.8610
  101       0.1513       -0.4116       0.5629        -0.8791       1.0305
  104      -0.1339       -1.2246       1.0907        -0.8962       0.7623
  110       1.0543       -0.9300       1.9844         0.0810       0.9733
  111      -0.0175       -0.4840       0.4665        -1.1947       1.1772
  113       1.2981        1.3768      -0.0787        -0.4558       1.7539
  114      25.6419        0.7337      24.9082         0.7046      24.9373
  121       0.0512       -0.9979       1.0491        -0.5663       0.6175
 Sum       29.5771       -2.4818      32.0589        -2.5359      32.1130

 Contributions to Isotropic shielding for atom  102 (    31.6417 ppm):
                         Standard Origin              Atomic Origin
 NLMO      Total    Paramagnetic  Diamagnetic   Paramagnetic  Diamagnetic
   87       0.3588       -0.9476       1.3063         0.0745       0.2842
   98       1.9777       -1.8508       3.8286         1.0456       0.9321
  107      -0.4352       -1.2191       0.7839        -0.7969       0.3617
  115       1.1552        0.1128       1.0424         0.3042       0.8510
  116      26.1211        0.2600      25.8611         0.4711      25.6500
  117       1.3069        3.1997      -1.8929        -0.6030       1.9098
  118       0.2725       -0.4028       0.6753        -0.8216       1.0941
  119       0.3000        1.0011      -0.7011        -0.1276       0.4276
  121       0.4486       -1.2572       1.7058        -1.2563       1.7049
 Sum       31.5056       -1.1039      32.6095        -1.7099      33.2155

 Contributions to Isotropic shielding for atom  103 (    32.1863 ppm):
                         Standard Origin              Atomic Origin
 NLMO      Total    Paramagnetic  Diamagnetic   Paramagnetic  Diamagnetic
   94      -0.2898        1.4514      -1.7412        -1.1486       0.8588
   96      -0.0340       -1.2322       1.1982        -0.8055       0.7715
   97      -0.2283        1.4361      -1.6643        -1.0461       0.8178
   98       1.1709        1.3413      -0.1703         0.1836       0.9873
  109      -0.0496       -1.1133       1.0638        -0.8320       0.7824
  115       0.3262        3.5475      -3.2213        -0.7402       1.0664
  116       1.9195        2.5018      -0.5823         0.0206       1.8990
  117      26.5962       -0.8234      27.4196         0.7629      25.8333
  119      -0.1413       -0.1486       0.0074        -1.2933       1.1520
  121       0.1412       -0.1854       0.3266        -0.8858       1.0270
 Sum       29.4113        6.7752      22.6361        -5.7841      35.1954

 Contributions to Isotropic shielding for atom  104 (    31.1552 ppm):
                         Standard Origin              Atomic Origin
 NLMO      Total    Paramagnetic  Diamagnetic   Paramagnetic  Diamagnetic
   81      -0.6302        1.4027      -2.0329        -1.3381       0.7079
   82      -0.1376        0.3383      -0.4759        -1.0852       0.9476
   86      -0.4551        1.7605      -2.2156        -1.5613       1.1063
   87       1.5159        1.1664       0.3494         0.5766       0.9392
  115       0.9349        3.3626      -2.4277        -0.1867       1.1216
  117      -0.1582        0.1050      -0.2632        -1.3273       1.1692
  118       0.1680        4.7807      -4.6127        -0.7202       0.8882
  119      26.1070       -1.2143      27.3214         0.5973      25.5097
  122      -0.0067       -0.7119       0.7051        -1.6839       1.6772
  127      -0.2043       -2.3960       2.1917        -0.6176       0.4133
  193      -0.5055       -0.4597      -0.0458         0.5003      -1.0058
 Sum       26.6282        8.1343      18.4939        -6.8461      33.4744

 Contributions to Isotropic shielding for atom  105 (    30.5123 ppm):
                         Standard Origin              Atomic Origin
 NLMO      Total    Paramagnetic  Diamagnetic   Paramagnetic  Diamagnetic
  120      -0.5195        0.0965      -0.6160        -1.1403       0.6208
  121      -0.0318        0.7315      -0.7633        -1.0625       1.0307
  123       0.6072        2.4735      -1.8663        -1.4680       2.0752
  124      26.0534        0.4022      25.6512         0.8845      25.1688
  125       1.7033        0.2222       1.4812        -0.2923       1.9956
  126       0.7440        3.8050      -3.0610        -1.2415       1.9855
  193       0.6925       -0.9581       1.6507         1.1617      -0.4691
 Sum       29.2492        6.7726      22.4765        -3.1584      32.4076

 Contributions to Isotropic shielding for atom  106 (    30.6761 ppm):
                         Standard Origin              Atomic Origin
 NLMO      Total    Paramagnetic  Diamagnetic   Paramagnetic  Diamagnetic
  120      -0.6258        0.2320      -0.8577        -1.5335       0.9077
  121      -0.1827        0.6680      -0.8506        -1.7084       1.5258
  122      -0.3177        0.4878      -0.8054        -1.1687       0.8511
  123       2.7960       -5.4287       8.2248         1.3824       1.4136
  124       1.5572        0.5336       1.0236        -0.4879       2.0451
  125      25.9028        1.0599      24.8429         0.7425      25.1603
  126       1.4150        0.3664       1.0486        -0.4597       1.8747
  194       0.1144       -0.8921       1.0064        -0.4170       0.5314
 Sum       30.6593       -2.9732      33.6325        -3.6503      34.3096

 Contributions to Isotropic shielding for atom  107 (    30.5833 ppm):
                         Standard Origin              Atomic Origin
 NLMO      Total    Paramagnetic  Diamagnetic   Paramagnetic  Diamagnetic
  120      -1.1679        0.7079      -1.8757        -2.0615       0.8937
  121      -0.3792        1.8135      -2.1927        -1.9401       1.5609
  122      -1.2122        0.6942      -1.9064        -1.9949       0.7827
  123       0.8432        1.1534      -0.3102        -0.6233       1.4665
  124       1.1480        4.0944      -2.9464        -0.8947       2.0427
  125       1.8077       -0.4031       2.2108        -0.0640       1.8717
  126      26.3317        0.5535      25.7783         1.0991      25.2326
  191       0.4934       -1.3821       1.8755         1.2668      -0.7733
  193       1.4351       -0.7445       2.1796         1.4955      -0.0604
 Sum       29.2999        6.4872      22.8127        -3.7172      33.0171

 Contributions to Isotropic shielding for atom  108 (    30.9362 ppm):
                         Standard Origin              Atomic Origin
 NLMO      Total    Paramagnetic  Diamagnetic   Paramagnetic  Diamagnetic
   76      -0.6483        0.1148      -0.7631        -1.5035       0.8553
   81      -0.6485        1.6263      -2.2748        -1.3700       0.7215
   82       1.2292       -0.8062       2.0354         0.0446       1.1847
   86      -0.2910        1.0705      -1.3616        -1.1211       0.8301
   87      -0.2635        1.1618      -1.4252        -1.1454       0.8819
  118      -0.3032        0.5541      -0.8574        -1.0212       0.7180
  122       0.6403       -0.5925       1.2328         0.0456       0.5948
  127      26.0083        0.1156      25.8927         0.6417      25.3666
  128       1.6629        3.4134      -1.7505        -0.3227       1.9856
  129       1.1795        2.5046      -1.3251        -0.6507       1.8302
  190       1.4783        0.0470       1.4313         1.4816      -0.0033
  193      -0.9041        0.0941      -0.9982         0.3718      -1.2759
 Sum       29.1400        9.3036      19.8363        -4.5494      33.6893

 Contributions to Isotropic shielding for atom  109 (    30.6789 ppm):
                         Standard Origin              Atomic Origin
 NLMO      Total    Paramagnetic  Diamagnetic   Paramagnetic  Diamagnetic
   75      -0.5916        0.8389      -1.4305        -1.3075       0.7159
   76      -1.0185        0.3021      -1.3206        -2.3843       1.3658
   79      -0.4272        1.1193      -1.5465        -1.0542       0.6270
   82       1.8087       -1.4867       3.2954         0.5604       1.2483
  127       1.5217        3.4214      -1.8996        -0.4465       1.9682
  128      25.9534        0.2417      25.7117         0.6256      25.3279
  129       1.3980        2.0659      -0.6679        -0.3982       1.7962
 Sum       28.6445        6.5024      22.1421        -4.4048      33.0493

 Contributions to Isotropic shielding for atom  110 (    31.8682 ppm):
                         Standard Origin              Atomic Origin
 NLMO      Total    Paramagnetic  Diamagnetic   Paramagnetic  Diamagnetic
   75      -0.3684        1.0346      -1.4030        -0.9905       0.6220
   76      -1.2801        0.4051      -1.6852        -2.4792       1.1991
   79      -0.5960        1.3919      -1.9879        -1.2519       0.6559
   82       1.8484       -2.4041       4.2525         1.0760       0.7723
   86      -0.1956        0.4879      -0.6835        -1.2249       1.0293
  127       1.7390        3.3156      -1.5765        -0.1747       1.9137
  128       1.8358        2.6470      -0.8112        -0.0606       1.8964
  129      26.6724        0.6049      26.0675         0.9811      25.6913
 Sum       29.6553        7.4828      22.1725        -4.1247      33.7800
 
 1\1\GINC-PCSN02\SP\RHF\STO-3G\C45H56N4O5\ABENIDD\30-May-2024\0\\# nmr=
 giao hf/sto-3g pop=nbo geom=connectivity\\pleiokomenine_C_1a\\0,1\C,0,
 0.,0.,0.\C,0,1.4004,0.,0.\C,0,2.0938,1.2283,0.\C,0,1.4081,2.4501,-0.03
 28\C,0,0.0251,2.44,-0.0938\C,0,-0.6628,1.2153,-0.0499\N,0,-0.8574,3.54
 68,-0.2471\C,0,-2.145,1.4855,-0.0685\C,0,-2.0814,2.8897,-0.7845\C,0,-3
 .0943,0.5608,-0.8454\C,0,-1.9116,2.6601,-2.3511\C,0,-3.1084,1.8991,-2.
 9351\C,0,-4.011,1.4202,-1.7817\N,0,-3.7886,-0.212,0.1903\C,0,-4.9745,-
 0.9206,-0.2629\C,0,-5.9196,-0.1072,-1.1467\C,0,-5.1707,0.5585,-2.3014\
 C,0,-2.6263,1.3951,1.3996\C,0,-3.9411,0.6264,1.3662\C,0,-4.5514,2.7277
 ,-1.1084\C,0,-3.4018,3.6704,-0.6588\C,0,-3.6861,4.3291,0.6796\O,0,-4.5
 361,3.9609,1.4811\O,0,-2.9205,5.4455,0.8396\C,0,-3.0976,6.1012,2.0945\
 C,0,-0.303,4.7307,-0.8856\C,0,2.1536,-1.3094,-0.0773\C,0,2.561,-1.6814
 ,-1.4885\C,0,1.5845,-1.892,-2.4739\C,0,3.9223,-1.7975,-1.8336\C,0,4.31
 55,-2.1206,-3.1391\C,0,3.3431,-2.333,-4.1022\C,0,1.9865,-2.1945,-3.765
 6\N,0,3.5244,-2.6972,-5.4625\C,0,1.1514,-2.3443,-5.014\C,0,2.1873,-3.2
 17,-5.8343\C,0,-0.2027,-3.0748,-4.9781\C,0,2.0595,-4.7319,-5.3635\C,0,
 0.6574,-5.2875,-5.6518\C,0,-0.2497,-4.1348,-6.1312\N,0,-1.2566,-1.9814
 ,-5.0464\C,0,-2.6112,-2.4647,-5.493\C,0,-2.6132,-3.445,-6.6494\C,0,-1.
 6845,-4.6189,-6.3623\C,0,0.813,-0.9085,-5.4947\C,0,-0.6509,-0.9251,-5.
 9146\C,0,0.3816,-3.6597,-7.4849\C,0,1.8699,-3.2585,-7.3369\C,0,2.2088,
 -2.0193,-8.1463\O,0,1.3834,-1.2219,-8.5755\O,0,3.5454,-1.9511,-8.3933\
 C,0,3.9501,-0.7873,-9.1141\C,0,4.7405,-3.4288,-5.7844\O,0,-1.4479,-1.4
 465,-3.7809\H,0,-0.5644,-0.9286,0.0032\H,0,3.1814,1.2349,-0.0036\H,0,1
 .9675,3.3776,-0.0472\H,0,-2.5316,-0.1534,-1.4604\H,0,-1.8145,3.6208,-2
 .8729\H,0,-0.9924,2.1092,-2.5863\H,0,-3.6669,2.5496,-3.6201\H,0,-2.750
 8,1.0564,-3.5385\H,0,-4.6388,-1.7933,-0.8383\H,0,-5.526,-1.3309,0.5918
 \H,0,-6.6925,-0.7696,-1.5539\H,0,-6.4428,0.6439,-0.5449\H,0,-4.7844,-0
 .2226,-2.9693\H,0,-5.8678,1.1612,-2.8955\H,0,-2.7076,2.3558,1.9077\H,0
 ,-1.9237,0.8077,2.0088\H,0,-4.06,0.0236,2.2729\H,0,-4.7988,1.2978,1.30
 82\H,0,-5.1687,3.2743,-1.8361\H,0,-5.2385,2.5003,-0.2932\H,0,-3.3937,4
 .5091,-1.372\H,0,-2.3973,6.9398,2.1401\H,0,-4.1154,6.4943,2.1791\H,0,-
 2.8739,5.4195,2.9212\H,0,0.2055,4.4938,-1.8271\H,0,0.4098,5.226,-0.217
 5\H,0,-1.0909,5.4575,-1.1056\H,0,1.5444,-2.1226,0.3386\H,0,3.0355,-1.2
 479,0.5734\H,0,0.5278,-1.7747,-2.2462\H,0,4.6901,-1.6256,-1.0825\H,0,5
 .3704,-2.1942,-3.3759\H,0,-0.3859,-3.5693,-4.0139\H,0,2.8011,-5.359,-5
 .8749\H,0,2.2737,-4.8442,-4.2934\H,0,0.255,-5.7617,-4.7479\H,0,0.7176,
 -6.0771,-6.4115\H,0,-3.0541,-2.9452,-4.6107\H,0,-3.1979,-1.5678,-5.722
 1\H,0,-3.6324,-3.8205,-6.7983\H,0,-2.336,-2.9408,-7.5797\H,0,-2.0471,-
 5.1569,-5.4767\H,0,-1.7238,-5.3304,-7.1959\H,0,0.8968,-0.1881,-4.6681\
 H,0,1.4752,-0.5155,-6.2647\H,0,-0.8042,-1.2016,-6.9554\H,0,-1.1654,0.0
 201,-5.7121\H,0,-0.2094,-2.8687,-7.9451\H,0,0.3294,-4.4855,-8.2096\H,0
 ,2.4574,-4.0598,-7.8108\H,0,5.0396,-0.8072,-9.205\H,0,3.6649,0.1201,-8
 .5723\H,0,3.5177,-0.7921,-10.1193\H,0,4.713,-3.7923,-6.8162\H,0,5.6146
 ,-2.774,-5.7009\H,0,4.8859,-4.2944,-5.1283\\Version=ES64L-G16RevB.01\S
 tate=1-A\HF=-2300.2272983\RMSD=3.375e-09\Dipole=0.5227491,-0.8633358,-
 2.2364324\Quadrupole=-3.9971672,8.5000601,-4.5028929,-1.8400385,0.1997
 692,10.2633175\PG=C01 [X(C45H56N4O5)]\\@


 IT'S WHAT A FELLER THINKS HE KNOWS THAT HURTS HIM...
                    ------
           KIN HUBBARD
 Job cpu time:       0 days  0 hours 11 minutes 36.8 seconds.
 Elapsed time:       0 days  0 hours  1 minutes 56.3 seconds.
 File lengths (MBytes):  RWF=     67 Int=      0 D2E=      0 Chk=     10 Scr=      1
 Normal termination of Gaussian 16 at Thu May 30 09:16:16 2024.
