 Entering Gaussian System, Link 0=g16
 Input=1_pleiokomenine_1a_c_20.gjf
 Output=1_pleiokomenine_1a_c_20.log
 Initial command:
 /opt/gaussian/g16/l1.exe "/data/abenidd/Elvis/pleiokomenine_C/NMR_HF/1a/1_pleiokomenine_1a_c_20/Gau-25214.inp" -scrdir="/data/abenidd/Elvis/pleiokomenine_C/NMR_HF/1a/1_pleiokomenine_1a_c_20/"
 Entering Link 1 = /opt/gaussian/g16/l1.exe PID=     25216.
  
 Copyright (c) 1988-2017, Gaussian, Inc.  All Rights Reserved.
  
 This is part of the Gaussian(R) 16 program.  It is based on
 the Gaussian(R) 09 system (copyright 2009, Gaussian, Inc.),
 the Gaussian(R) 03 system (copyright 2003, Gaussian, Inc.),
 the Gaussian(R) 98 system (copyright 1998, Gaussian, Inc.),
 the Gaussian(R) 94 system (copyright 1995, Gaussian, Inc.),
 the Gaussian 92(TM) system (copyright 1992, Gaussian, Inc.),
 the Gaussian 90(TM) system (copyright 1990, Gaussian, Inc.),
 the Gaussian 88(TM) system (copyright 1988, Gaussian, Inc.),
 the Gaussian 86(TM) system (copyright 1986, Carnegie Mellon
 University), and the Gaussian 82(TM) system (copyright 1983,
 Carnegie Mellon University). Gaussian is a federally registered
 trademark of Gaussian, Inc.
  
 This software contains proprietary and confidential information,
 including trade secrets, belonging to Gaussian, Inc.
  
 This software is provided under written license and may be
 used, copied, transmitted, or stored only in accord with that
 written license.
  
 The following legend is applicable only to US Government
 contracts under FAR:
  
                    RESTRICTED RIGHTS LEGEND
  
 Use, reproduction and disclosure by the US Government is
 subject to restrictions as set forth in subparagraphs (a)
 and (c) of the Commercial Computer Software - Restricted
 Rights clause in FAR 52.227-19.
  
 Gaussian, Inc.
 340 Quinnipiac St., Bldg. 40, Wallingford CT 06492
  
  
 ---------------------------------------------------------------
 Warning -- This program may not be used in any manner that
 competes with the business of Gaussian, Inc. or will provide
 assistance to any competitor of Gaussian, Inc.  The licensee
 of this program is prohibited from giving any competitor of
 Gaussian, Inc. access to this program.  By using this program,
 the user acknowledges that Gaussian, Inc. is engaged in the
 business of creating and licensing software in the field of
 computational chemistry and represents and warrants to the
 licensee that it is not a competitor of Gaussian, Inc. and that
 it will not use this program in any manner prohibited above.
 ---------------------------------------------------------------
  

 Cite this work as:
 Gaussian 16, Revision B.01,
 M. J. Frisch, G. W. Trucks, H. B. Schlegel, G. E. Scuseria, 
 M. A. Robb, J. R. Cheeseman, G. Scalmani, V. Barone, 
 G. A. Petersson, H. Nakatsuji, X. Li, M. Caricato, A. V. Marenich, 
 J. Bloino, B. G. Janesko, R. Gomperts, B. Mennucci, H. P. Hratchian, 
 J. V. Ortiz, A. F. Izmaylov, J. L. Sonnenberg, D. Williams-Young, 
 F. Ding, F. Lipparini, F. Egidi, J. Goings, B. Peng, A. Petrone, 
 T. Henderson, D. Ranasinghe, V. G. Zakrzewski, J. Gao, N. Rega, 
 G. Zheng, W. Liang, M. Hada, M. Ehara, K. Toyota, R. Fukuda, 
 J. Hasegawa, M. Ishida, T. Nakajima, Y. Honda, O. Kitao, H. Nakai, 
 T. Vreven, K. Throssell, J. A. Montgomery, Jr., J. E. Peralta, 
 F. Ogliaro, M. J. Bearpark, J. J. Heyd, E. N. Brothers, K. N. Kudin, 
 V. N. Staroverov, T. A. Keith, R. Kobayashi, J. Normand, 
 K. Raghavachari, A. P. Rendell, J. C. Burant, S. S. Iyengar, 
 J. Tomasi, M. Cossi, J. M. Millam, M. Klene, C. Adamo, R. Cammi, 
 J. W. Ochterski, R. L. Martin, K. Morokuma, O. Farkas, 
 J. B. Foresman, and D. J. Fox, Gaussian, Inc., Wallingford CT, 2016.
 
 ******************************************
 Gaussian 16:  ES64L-G16RevB.01 20-Dec-2017
                30-May-2024 
 ******************************************
 %nprocshared=8
 Will use up to    8 processors via shared memory.
 ----------------------------------------------
 # nmr=giao hf/sto-3g pop=nbo geom=connectivity
 ----------------------------------------------
 1/38=1,57=2,172=1/1;
 2/12=2,17=6,18=5,40=1/2;
 3/6=3,11=9,25=1,30=1/1,2,3,8;
 4//1;
 5/5=2,38=5/2;
 8/6=1,10=90,11=11/1;
 10/13=100,45=16/2;
 6/7=2,8=2,9=2,10=2,28=1,40=1,64=1/1,7;
 99/9=1/99;
 ------------------
 pleiokomenine_C_1a
 ------------------
 Symbolic Z-matrix:
 Charge =  0 Multiplicity = 1
 C                     0.        0.        0. 
 C                     1.4016    0.        0. 
 C                     2.0972    1.2291    0. 
 C                     1.417     2.4529   -0.0202 
 C                     0.0345    2.4466   -0.0495 
 C                    -0.6604    1.2195   -0.0189 
 N                    -0.8486    3.5627   -0.1241 
 C                    -2.1354    1.5242    0.0786 
 C                    -2.0984    2.9318   -0.6203 
 C                    -3.1838    0.6546   -0.6162 
 C                    -1.9649    2.7284   -2.1988 
 C                    -3.1179    1.8973   -2.7641 
 C                    -4.0402    1.4603   -1.6204 
 N                    -4.0873    0.2547    0.4623 
 C                    -5.0131   -0.7798    0.064 
 C                    -5.9378   -0.173    -1.0051 
 C                    -5.1759    0.5441   -2.1356 
 C                    -2.478     1.38      1.5858 
 C                    -3.2887    0.0838    1.6521 
 C                    -4.5849    2.7706   -0.9491 
 C                    -3.4262    3.7042   -0.466 
 C                    -3.7134    4.3304    0.8893 
 O                    -4.6687    4.0588    1.6062 
 O                    -2.8178    5.3194    1.1654 
 C                    -3.0008    5.9391    2.4376 
 C                    -0.3201    4.7729   -0.7334 
 C                     2.1671   -1.3039    0.0359 
 C                     2.7498   -1.6272    1.3928 
 C                     4.0998   -1.3619    1.6576 
 C                     1.9338   -2.1505    2.4163 
 C                     2.4516   -2.4266    3.6877 
 C                     3.792    -2.1823    3.9343 
 C                     4.599    -1.6333    2.923 
 N                     4.5174   -2.421     5.1311 
 C                     5.9688   -1.3489    3.4901 
 C                     5.9218   -2.4138    4.6611 
 C                     7.2349   -1.5872    2.6495 
 C                     6.2848   -3.8433    4.0631 
 C                     7.7074   -3.8598    3.4857 
 C                     8.2645   -2.4206    3.4863 
 N                     7.6987   -0.2068    2.2176 
 C                     9.1435   -0.1528    1.7951 
 C                     10.114   -0.9225    2.6697 
 C                     9.6543   -2.3651    2.8445 
 C                     5.9993    0.1635    3.8342 
 C                     7.3505    0.687     3.3658 
 C                     8.3538   -2.0226    4.9995 
 C                     6.9961   -2.1661    5.7313 
 C                     6.7509   -1.0255    6.7033 
 O                     7.3478    0.0444    6.6836 
 O                     5.8319   -1.377     7.6432 
 C                     5.5114   -0.3375    8.5678 
 C                     4.0117   -3.4705    6.003 
 O                     6.9634    0.1968    1.1106 
 H                    -0.5563   -0.9306    0.0393 
 H                     3.1865    1.2348    0.0258 
 H                     1.9809    3.3783   -0.0134 
 H                    -2.7182   -0.2186   -1.0934 
 H                    -1.9478    3.7036   -2.7037 
 H                    -1.0181    2.2504   -2.4792 
 H                    -3.6721    2.4838   -3.5074 
 H                    -2.7142    1.0265   -3.2959 
 H                    -4.4931   -1.6625   -0.3265 
 H                    -5.6251   -1.1039    0.9133 
 H                    -6.5712   -0.9591   -1.4321 
 H                    -6.6153    0.5458   -0.5261 
 H                    -4.7463   -0.2265   -2.7896 
 H                    -5.8819    1.1149   -2.7504 
 H                    -3.0938    2.1994    1.953 
 H                    -1.6086    1.3207    2.2515 
 H                    -2.6452   -0.8016    1.6007 
 H                    -3.8924    0.0401    2.5633 
 H                    -5.1935    3.323    -1.6781 
 H                    -5.2692    2.5235   -0.1312 
 H                    -3.4211    4.5659   -1.1512 
 H                    -2.1955    6.6652    2.5793 
 H                    -3.9566    6.471     2.4687 
 H                    -2.9419    5.1974    3.2405 
 H                     0.1442    4.5766   -1.7064 
 H                     0.424     5.2373   -0.0774 
 H                    -1.1151    5.5093   -0.8855 
 H                     2.963    -1.2699   -0.72 
 H                     1.5186   -2.1325   -0.2787 
 H                     4.7376   -0.9147    0.8989 
 H                     0.8784   -2.3329    2.227 
 H                     1.7973   -2.8188    4.4572 
 H                     7.0186   -2.1086    1.7065 
 H                     6.208    -4.617     4.8379 
 H                     5.5792   -4.1467    3.2797 
 H                     7.6898   -4.2803    2.4725 
 H                     8.3452   -4.5242    4.0824 
 H                     9.1649   -0.5669    0.7786 
 H                     9.4076    0.9091    1.7362 
 H                     11.1038  -0.9149    2.1983 
 H                     10.234   -0.427     3.6376 
 H                     9.6357   -2.8582    1.8639 
 H                     10.3843  -2.9119    3.4535 
 H                     5.2332    0.7112    3.2666 
 H                     5.7857    0.4013    4.875 
 H                     8.1332    0.608     4.1171 
 H                     7.3066    1.7166    2.9959 
 H                     8.7816   -1.0288    5.1254 
 H                     9.0739   -2.687     5.4994 
 H                     7.0807   -3.0554    6.3746 
 H                     5.1308    0.5432    8.0409 
 H                     6.3876   -0.081     9.1713 
 H                     4.7272   -0.707     9.2342 
 H                     4.7186   -3.6771    6.8123 
 H                     3.0726   -3.1588    6.4725 
 H                     3.8398   -4.4077    5.4615 
 
 Stoichiometry    C45H56N4O5
 Framework group  C1[X(C45H56N4O5)]
 Deg. of freedom   324
 Full point group                 C1      NOp   1
 Largest Abelian subgroup         C1      NOp   1
 Largest concise Abelian subgroup C1      NOp   1
                         Standard orientation:                         
 ---------------------------------------------------------------------
 Center     Atomic      Atomic             Coordinates (Angstroms)
 Number     Number       Type             X           Y           Z
 ---------------------------------------------------------------------
      1          6           0        2.411583   -0.052154   -1.444015
      2          6           0        1.199150   -0.753178   -1.499261
      3          6           0        0.994736   -1.857844   -0.643413
      4          6           0        1.986475   -2.283425    0.248831
      5          6           0        3.191593   -1.605916    0.278455
      6          6           0        3.384306   -0.484200   -0.554739
      7          7           0        4.344907   -1.896829    1.063532
      8          6           0        4.721317    0.125301   -0.209941
      9          6           0        5.412482   -1.185420    0.314912
     10          6           0        5.613716    0.762017   -1.275919
     11          6           0        5.836918   -2.088103   -0.932434
     12          6           0        6.782556   -1.343922   -1.876713
     13          6           0        7.000284    0.082832   -1.360356
     14          7           0        5.852191    2.116825   -0.778908
     15          6           0        6.471467    2.974289   -1.762368
     16          6           0        7.877724    2.412209   -2.032106
     17          6           0        7.884225    0.901262   -2.331689
     18          6           0        4.392756    1.303169    0.746350
     19          6           0        4.649606    2.547087   -0.107150
     20          6           0        7.637445   -0.042727    0.068801
     21          6           0        6.751548   -0.902919    1.029445
     22          6           0        6.682379   -0.319585    2.431723
     23          8           0        7.145880    0.761960    2.771925
     24          8           0        6.121407   -1.208336    3.298835
     25          6           0        5.991885   -0.723716    4.634640
     26          6           0        4.512719   -3.277282    1.489361
     27          6           0        0.101707   -0.311383   -2.441530
     28          6           0       -1.027495    0.422442   -1.754767
     29          6           0       -2.211139   -0.254883   -1.433483
     30          6           0       -0.883497    1.775974   -1.388069
     31          6           0       -1.908495    2.461137   -0.724189
     32          6           0       -3.083639    1.790462   -0.430254
     33          6           0       -3.216225    0.433037   -0.769658
     34          7           0       -4.247505    2.303342    0.200527
     35          6           0       -4.526814   -0.081881   -0.225549
     36          6           0       -5.279695    1.310302   -0.175966
     37          6           0       -5.376529   -1.080252   -1.030312
     38          6           0       -5.826335    1.644763   -1.632731
     39          6           0       -6.840721    0.591817   -2.101537
     40          6           0       -6.857643   -0.572569   -1.088830
     41          7           0       -5.165801   -2.425119   -0.356457
     42          6           0       -6.236036   -3.438257   -0.667932
     43          6           0       -7.659940   -2.917218   -0.652100
     44          6           0       -7.795672   -1.692653   -1.549314
     45          6           0       -4.196347   -0.818796    1.099003
     46          6           0       -5.016238   -2.102137    1.096746
     47          6           0       -7.386850    0.059103    0.244243
     48          6           0       -6.539567    1.272114    0.702708
     49          6           0       -6.331718    1.284337    2.206877
     50          8           0       -6.494655    0.315061    2.938532
     51          8           0       -6.011010    2.532704    2.643053
     52          6           0       -5.752516    2.615974    4.044628
     53          6           0       -4.483852    3.733345    0.071599
     54          8           0       -3.974524   -2.979896   -0.805999
     55          1           0        2.576908    0.822983   -2.063558
     56          1           0        0.044396   -2.390468   -0.664341
     57          1           0        1.795207   -3.131092    0.896343
     58          1           0        5.111796    0.776204   -2.253086
     59          1           0        6.331087   -3.004517   -0.582842
     60          1           0        4.970979   -2.438086   -1.507933
     61          1           0        7.736747   -1.880434   -1.949449
     62          1           0        6.355907   -1.333499   -2.887624
     63          1           0        5.886151    3.019908   -2.688312
     64          1           0        6.570229    3.997071   -1.381503
     65          1           0        8.335370    2.953011   -2.868509
     66          1           0        8.512345    2.600166   -1.156293
     67          1           0        7.514449    0.762631   -3.356454
     68          1           0        8.915348    0.528584   -2.320509
     69          1           0        5.049421    1.330252    1.614405
     70          1           0        3.366098    1.310184    1.131647
     71          1           0        3.826474    2.739075   -0.804474
     72          1           0        4.808077    3.430767    0.517866
     73          1           0        8.622183   -0.522327   -0.016368
     74          1           0        7.835687    0.949689    0.486049
     75          1           0        7.288590   -1.853234    1.172768
     76          1           0        5.475613   -1.487272    5.223073
     77          1           0        6.978689   -0.554215    5.076145
     78          1           0        5.393110    0.192372    4.656747
     79          1           0        4.420967   -3.981102    0.654462
     80          1           0        3.767456   -3.535944    2.249208
     81          1           0        5.496822   -3.425668    1.944296
     82          1           0       -0.285747   -1.190660   -2.973271
     83          1           0        0.515550    0.331579   -3.229843
     84          1           0       -2.327190   -1.311195   -1.663999
     85          1           0        0.043135    2.300882   -1.608973
     86          1           0       -1.764536    3.498415   -0.445999
     87          1           0       -4.996136   -1.225233   -2.051182
     88          1           0       -6.307287    2.631314   -1.647781
     89          1           0       -5.013451    1.707468   -2.366846
     90          1           0       -6.572660    0.242586   -3.106468
     91          1           0       -7.836160    1.045214   -2.189859
     92          1           0       -5.998376   -3.812944   -1.672091
     93          1           0       -6.098635   -4.260022    0.043877
     94          1           0       -8.332820   -3.703990   -1.012935
     95          1           0       -7.974956   -2.692963    0.371240
     96          1           0       -7.562722   -1.976835   -2.583744
     97          1           0       -8.837572   -1.350288   -1.548220
     98          1           0       -3.138813   -1.118451    1.128722
     99          1           0       -4.334060   -0.224634    2.000915
    100          1           0       -6.007110   -1.987508    1.530733
    101          1           0       -4.503516   -2.939334    1.581563
    102          1           0       -7.483975   -0.690086    1.028963
    103          1           0       -8.416339    0.412395    0.085471
    104          1           0       -7.147047    2.169044    0.506925
    105          1           0       -4.936428    1.943262    4.326712
    106          1           0       -6.659109    2.387277    4.613415
    107          1           0       -5.449292    3.641470    4.272671
    108          1           0       -5.472655    3.999766    0.457144
    109          1           0       -3.750887    4.297010    0.658574
    110          1           0       -4.430328    4.066636   -0.971075
 ---------------------------------------------------------------------
 Rotational constants (GHZ):           0.1101014           0.0211813           0.0209660
 Standard basis: STO-3G (5D, 7F)
 There are   326 symmetry adapted cartesian basis functions of A   symmetry.
 There are   326 symmetry adapted basis functions of A   symmetry.
   326 basis functions,   978 primitive gaussians,   326 cartesian basis functions
   197 alpha electrons      197 beta electrons
       nuclear repulsion energy      7702.4389401331 Hartrees.
 NAtoms=  110 NActive=  110 NUniq=  110 SFac= 1.00D+00 NAtFMM=   60 NAOKFM=T Big=T
 Integral buffers will be    131072 words long.
 Raffenetti 1 integral format.
 Two-electron integral symmetry is turned on.
 One-electron integrals computed using PRISM.
 NBasis=   326 RedAO= T EigKep=  1.73D-01  NBF=   326
 NBsUse=   326 1.00D-06 EigRej= -1.00D+00 NBFU=   326
 ExpMin= 1.69D-01 ExpMax= 1.31D+02 ExpMxC= 1.31D+02 IAcc=3 IRadAn=         5 AccDes= 0.00D+00
 Harris functional with IExCor=  205 and IRadAn=       5 diagonalized for initial guess.
 HarFok:  IExCor=  205 AccDes= 0.00D+00 IRadAn=         5 IDoV= 1 UseB2=F ITyADJ=14
 ICtDFT=  3500011 ScaDFX=  1.000000  1.000000  1.000000  1.000000
 FoFCou: FMM=F IPFlag=           0 FMFlag=      100000 FMFlg1=        2001
         NFxFlg=           0 DoJE=T BraDBF=F KetDBF=T FulRan=T
         wScrn=  0.000000 ICntrl=       500 IOpCl=  0 I1Cent=   200000004 NGrid=           0
         NMat0=    1 NMatS0=      1 NMatT0=    0 NMatD0=    1 NMtDS0=    0 NMtDT0=    0
 Petite list used in FoFCou.
 Requested convergence on RMS density matrix=1.00D-08 within 128 cycles.
 Requested convergence on MAX density matrix=1.00D-06.
 Requested convergence on             energy=1.00D-06.
 No special actions if energy rises.
 Integral accuracy reduced to 1.0D-05 until final iterations.
 Initial convergence to 1.0D-05 achieved.  Increase integral accuracy.
 SCF Done:  E(RHF) =  -2300.22209432     A.U. after   15 cycles
            NFock= 15  Conv=0.98D-08     -V/T= 2.0092
 Range of M.O.s used for correlation:     1   326
 NBasis=   326 NAE=   197 NBE=   197 NFC=     0 NFV=     0
 NROrb=    326 NOA=   197 NOB=   197 NVA=   129 NVB=   129
          Differentiating once with respect to magnetic field using GIAOs.
          Electric field/nuclear overlap derivatives assumed to be zero.
 FoFCou: FMM=F IPFlag=           0 FMFlag=      100000 FMFlg1=        2001
         NFxFlg=           0 DoJE=F BraDBF=F KetDBF=T FulRan=T
         wScrn=  0.000000 ICntrl=      6100 IOpCl=  0 I1Cent=           7 NGrid=         110
         NMat0=    1 NMatS0=      1 NMatT0=    0 NMatD0=    1 NMtDS0=    0 NMtDT0=    0
 Symmetry not used in FoFCou.
 FoFJK:  IHMeth= 1 ICntrl=    6127 DoSepK=F KAlg= 0 I1Cent=           0 FoldK=F
 IRaf=         1 NMat=       1 IRICut=       1 DoRegI=T DoRafI=F ISym2E= 0 IDoP0=0 IntGTp=1.
          There are     3 degrees of freedom in the 1st order CPHF.  IDoFFX=0 NUNeed=     3.
      3 vectors produced by pass  0 Test12= 8.47D-13 3.33D-08 XBig12= 2.69D+02 2.41D+00.
 AX will form     3 AO Fock derivatives at one time.
      3 vectors produced by pass  1 Test12= 8.47D-13 3.33D-08 XBig12= 9.15D-01 3.27D-01.
      3 vectors produced by pass  2 Test12= 8.47D-13 3.33D-08 XBig12= 2.41D-02 3.87D-02.
      3 vectors produced by pass  3 Test12= 8.47D-13 3.33D-08 XBig12= 4.97D-04 6.53D-03.
      3 vectors produced by pass  4 Test12= 8.47D-13 3.33D-08 XBig12= 1.86D-05 8.64D-04.
      3 vectors produced by pass  5 Test12= 8.47D-13 3.33D-08 XBig12= 3.82D-07 1.13D-04.
      3 vectors produced by pass  6 Test12= 8.47D-13 3.33D-08 XBig12= 1.50D-08 2.33D-05.
      3 vectors produced by pass  7 Test12= 8.47D-13 3.33D-08 XBig12= 6.01D-10 3.96D-06.
      3 vectors produced by pass  8 Test12= 8.47D-13 3.33D-08 XBig12= 1.04D-11 5.35D-07.
      2 vectors produced by pass  9 Test12= 8.47D-13 3.33D-08 XBig12= 1.90D-13 7.75D-08.
 InvSVY:  IOpt=1 It=  1 EMax= 3.55D-15
 Solved reduced A of dimension    29 with     3 vectors.
 Calculating GIAO nuclear magnetic shielding tensors.
 SCF GIAO Magnetic shielding tensor (ppm):
      1  C    Isotropic =   126.5783   Anisotropy =   141.7422
   XX=   136.8104   YX=   -34.3659   ZX=   -19.8083
   XY=   -34.6040   YY=    97.4653   ZY=    85.8574
   XZ=   -18.5431   YZ=    75.0992   ZZ=   145.4593
   Eigenvalues:    34.7092   123.9527   221.0731
      2  C    Isotropic =   120.3399   Anisotropy =   156.8175
   XX=    84.2589   YX=   -20.0655   ZX=   -61.7487
   XY=   -14.7559   YY=   136.0830   ZY=    70.1515
   XZ=   -56.2787   YZ=    58.7688   ZZ=   140.6777
   Eigenvalues:    41.1366    94.9982   224.8849
      3  C    Isotropic =   118.5906   Anisotropy =   157.5469
   XX=    60.1312   YX=   -58.2877   ZX=   -37.3811
   XY=   -58.0682   YY=   131.9997   ZY=    51.3780
   XZ=   -26.3948   YZ=    49.4221   ZZ=   163.6408
   Eigenvalues:    27.5857   104.5642   223.6219
      4  C    Isotropic =   133.2857   Anisotropy =   143.5052
   XX=   135.3079   YX=   -31.9835   ZX=   -23.1449
   XY=   -41.0185   YY=   116.0175   ZY=    77.8619
   XZ=   -19.1373   YZ=    78.4893   ZZ=   148.5318
   Eigenvalues:    49.4859   121.4154   228.9559
      5  C    Isotropic =   108.2099   Anisotropy =   127.7876
   XX=    86.6730   YX=   -11.7219   ZX=   -43.8297
   XY=   -12.5794   YY=   115.7526   ZY=    57.1963
   XZ=   -60.5367   YZ=    48.9741   ZZ=   122.2042
   Eigenvalues:    41.0412    90.1870   193.4017
      6  C    Isotropic =   117.8496   Anisotropy =   141.1394
   XX=    81.8000   YX=   -45.2538   ZX=   -37.1367
   XY=   -50.2722   YY=   126.1250   ZY=    45.9733
   XZ=   -28.5231   YZ=    55.8378   ZZ=   145.6239
   Eigenvalues:    51.3068    90.2994   211.9426
      7  N    Isotropic =   272.8367   Anisotropy =    83.8148
   XX=   321.8889   YX=   -24.0340   ZX=    18.6031
   XY=    -5.1728   YY=   241.5349   ZY=     0.9393
   XZ=    16.1337   YZ=    -7.7371   ZZ=   255.0863
   Eigenvalues:   238.9542   250.8427   328.7132
      8  C    Isotropic =   198.1689   Anisotropy =    12.8764
   XX=   191.0911   YX=     0.5696   ZX=    -2.4645
   XY=     2.0898   YY=   203.1217   ZY=    -9.3980
   XZ=    -0.2241   YZ=     0.1771   ZZ=   200.2939
   Eigenvalues:   190.8544   196.8991   206.7532
      9  C    Isotropic =   180.2036   Anisotropy =    43.3910
   XX=   188.6720   YX=    16.6909   ZX=     2.2285
   XY=     7.8487   YY=   177.4083   ZY=   -24.9518
   XZ=   -15.0607   YZ=   -23.7078   ZZ=   174.5305
   Eigenvalues:   151.1825   180.2973   209.1310
     10  C    Isotropic =   189.4068   Anisotropy =    32.4044
   XX=   175.9575   YX=     2.7287   ZX=    -2.1528
   XY=     1.1050   YY=   210.7141   ZY=     1.8311
   XZ=    -8.6278   YZ=     3.4330   ZZ=   181.5488
   Eigenvalues:   172.4442   184.7664   211.0097
     11  C    Isotropic =   212.8244   Anisotropy =    20.6928
   XX=   208.7424   YX=    -0.2537   ZX=    -9.1513
   XY=    -2.9180   YY=   212.4861   ZY=     4.9411
   XZ=    -5.6079   YZ=    12.5704   ZZ=   217.2448
   Eigenvalues:   202.9162   208.9375   226.6196
     12  C    Isotropic =   214.4752   Anisotropy =    19.2465
   XX=   207.1165   YX=     6.2572   ZX=    -1.5394
   XY=     6.7002   YY=   224.9248   ZY=     3.5777
   XZ=    -3.7024   YZ=     2.4464   ZZ=   211.3844
   Eigenvalues:   203.4894   212.6300   227.3062
     13  C    Isotropic =   210.9094   Anisotropy =     8.1401
   XX=   212.4051   YX=     2.1407   ZX=    -2.9125
   XY=     0.4576   YY=   207.4868   ZY=    -3.0449
   XZ=    -3.7270   YZ=     0.3967   ZZ=   212.8365
   Eigenvalues:   207.0974   209.2948   216.3362
     14  N    Isotropic =   300.9290   Anisotropy =    59.6220
   XX=   286.1405   YX=     6.1458   ZX=   -41.8654
   XY=     3.5812   YY=   339.6036   ZY=     4.0717
   XZ=   -35.6810   YZ=    12.4503   ZZ=   277.0429
   Eigenvalues:   241.6492   320.4608   340.6770
     15  C    Isotropic =   202.4216   Anisotropy =    39.6613
   XX=   203.8096   YX=    11.9131   ZX=   -13.1174
   XY=    10.4705   YY=   201.5184   ZY=   -15.8406
   XZ=   -12.9032   YZ=   -14.9931   ZZ=   201.9369
   Eigenvalues:   186.1427   192.2596   228.8625
     16  C    Isotropic =   219.4514   Anisotropy =     9.7089
   XX=   223.7185   YX=    -0.0355   ZX=    -3.2911
   XY=    -1.2237   YY=   222.8230   ZY=     2.7053
   XZ=    -6.8184   YZ=    -0.1579   ZZ=   211.8128
   Eigenvalues:   209.8818   222.5484   225.9240
     17  C    Isotropic =   213.9936   Anisotropy =    23.2143
   XX=   211.4950   YX=     9.1332   ZX=   -10.5580
   XY=     6.5106   YY=   217.6782   ZY=    -6.0393
   XZ=    -7.5886   YZ=    -6.1981   ZZ=   212.8076
   Eigenvalues:   202.8026   209.7084   229.4698
     18  C    Isotropic =   209.3810   Anisotropy =    30.9826
   XX=   197.4366   YX=     0.0174   ZX=   -11.8216
   XY=     5.0067   YY=   227.1985   ZY=     7.8024
   XZ=   -16.9667   YZ=     9.0224   ZZ=   203.5080
   Eigenvalues:   184.5067   213.6002   230.0361
     19  C    Isotropic =   200.0453   Anisotropy =    40.9375
   XX=   207.2937   YX=    -9.9202   ZX=   -25.9969
   XY=    -0.8272   YY=   197.2217   ZY=     3.1947
   XZ=   -22.2446   YZ=     1.4322   ZZ=   195.6206
   Eigenvalues:   176.5273   196.2717   227.3370
     20  C    Isotropic =   212.2769   Anisotropy =    20.6238
   XX=   212.5385   YX=     4.1415   ZX=     1.6326
   XY=     1.9826   YY=   200.0510   ZY=    -6.7026
   XZ=     1.7501   YZ=    -6.6770   ZZ=   224.2411
   Eigenvalues:   197.5568   213.2477   226.0261
     21  C    Isotropic =   208.2115   Anisotropy =    10.8835
   XX=   211.1471   YX=     1.3378   ZX=     4.5641
   XY=    -0.6599   YY=   199.8333   ZY=     7.1940
   XZ=    -0.6367   YZ=     0.0787   ZZ=   213.6539
   Eigenvalues:   198.9333   210.2340   215.4671
     22  C    Isotropic =    96.9429   Anisotropy =    98.9629
   XX=   144.4291   YX=    -5.6576   ZX=    55.9354
   XY=    -9.4442   YY=   151.5478   ZY=    45.9866
   XZ=    46.8405   YZ=    24.9112   ZZ=    -5.1481
   Eigenvalues:   -28.3454   156.2560   162.9182
     23  O    Isotropic =  -136.1590   Anisotropy =   888.0388
   XX=   255.4000   YX=  -384.6112   ZX=    92.4592
   XY=  -379.1396   YY=  -383.7730   ZY=   -97.1829
   XZ=    91.1358   YZ=  -111.1322   ZZ=  -280.1041
   Eigenvalues:  -573.2715  -291.0724   455.8669
     24  O    Isotropic =   284.7015   Anisotropy =   138.0094
   XX=   358.7858   YX=   -26.3192   ZX=   -60.5831
   XY=    11.1097   YY=   289.1666   ZY=  -179.5406
   XZ=    15.9130   YZ=   -58.8077   ZZ=   206.1520
   Eigenvalues:   119.3270   358.0697   376.7077
     25  C    Isotropic =   197.4299   Anisotropy =    57.1477
   XX=   179.0974   YX=    -2.5254   ZX=    -5.0445
   XY=    -1.8192   YY=   182.0472   ZY=    14.2664
   XZ=    -4.4686   YZ=    14.5321   ZZ=   231.1451
   Eigenvalues:   177.5000   179.2614   235.5284
     26  C    Isotropic =   209.8201   Anisotropy =    41.3634
   XX=   194.1976   YX=    -3.2692   ZX=     1.7258
   XY=    -3.2754   YY=   231.8496   ZY=   -13.5852
   XZ=     4.4812   YZ=   -12.6926   ZZ=   203.4132
   Eigenvalues:   193.2273   198.8374   237.3957
     27  C    Isotropic =   206.5397   Anisotropy =    17.8765
   XX=   216.3113   YX=    -6.7065   ZX=     0.8777
   XY=    -5.8571   YY=   199.5741   ZY=     0.3369
   XZ=     1.1350   YZ=     0.2398   ZZ=   203.7337
   Eigenvalues:   197.4229   203.7389   218.4573
     28  C    Isotropic =   119.8113   Anisotropy =   157.6499
   XX=    83.9110   YX=     7.5293   ZX=    66.3988
   XY=     8.1148   YY=    89.0209   ZY=   -47.6870
   XZ=    57.4039   YZ=   -37.1979   ZZ=   186.5019
   Eigenvalues:    39.8370    94.6856   224.9112
     29  C    Isotropic =   121.1912   Anisotropy =   151.5194
   XX=   128.3971   YX=   -19.7113   ZX=    39.5455
   XY=   -20.2321   YY=    40.4770   ZY=   -45.1405
   XZ=    35.7619   YZ=   -32.6139   ZZ=   194.6996
   Eigenvalues:    29.9357   111.4338   222.2042
     30  C    Isotropic =   119.2024   Anisotropy =   156.0093
   XX=    63.4804   YX=   -42.7265   ZX=    56.9151
   XY=   -45.1144   YY=    98.6853   ZY=   -22.5354
   XZ=    45.6594   YZ=   -20.5495   ZZ=   195.4416
   Eigenvalues:    27.4546   106.9440   223.2087
     31  C    Isotropic =   134.5858   Anisotropy =   141.2288
   XX=   138.5644   YX=   -19.0956   ZX=    34.7011
   XY=   -27.7317   YY=    66.7142   ZY=   -41.0524
   XZ=    34.9231   YZ=   -43.3001   ZZ=   198.4789
   Eigenvalues:    52.2568   122.7623   228.7384
     32  C    Isotropic =   109.4770   Anisotropy =   125.8583
   XX=    87.4054   YX=     6.2412   ZX=    47.2780
   XY=    11.2135   YY=    83.7184   ZY=   -37.1419
   XZ=    62.3931   YZ=   -29.8239   ZZ=   157.3071
   Eigenvalues:    42.1610    92.8874   193.3825
     33  C    Isotropic =   119.3815   Anisotropy =   135.6339
   XX=    89.4324   YX=   -33.8453   ZX=    49.1440
   XY=   -37.5877   YY=    94.1833   ZY=   -19.9921
   XZ=    48.6468   YZ=   -31.4604   ZZ=   174.5288
   Eigenvalues:    52.2010    96.1394   209.8041
     34  N    Isotropic =   275.6841   Anisotropy =    82.8487
   XX=   325.4391   YX=   -24.3235   ZX=    -9.8917
   XY=    -6.6681   YY=   250.2681   ZY=     2.7110
   XZ=   -15.3311   YZ=    12.1938   ZZ=   251.3451
   Eigenvalues:   243.1999   252.9359   330.9165
     35  C    Isotropic =   195.3655   Anisotropy =    13.2894
   XX=   188.5941   YX=     1.4276   ZX=     1.9517
   XY=     2.2226   YY=   203.0008   ZY=     6.0729
   XZ=    -2.3461   YZ=     0.2438   ZZ=   194.5018
   Eigenvalues:   188.3045   193.5670   204.2252
     36  C    Isotropic =   181.4205   Anisotropy =    44.5017
   XX=   190.0415   YX=    15.4022   ZX=    -7.7434
   XY=    14.7479   YY=   196.6783   ZY=    13.6175
   XZ=     9.2200   YZ=    13.1333   ZZ=   157.5416
   Eigenvalues:   152.9765   180.1966   211.0882
     37  C    Isotropic =   180.1252   Anisotropy =    46.1276
   XX=   162.8906   YX=     2.4566   ZX=     7.2302
   XY=    -4.4519   YY=   201.0608   ZY=   -20.8377
   XZ=     2.3598   YZ=   -15.4478   ZZ=   176.4242
   Eigenvalues:   160.4590   169.0397   210.8770
     38  C    Isotropic =   213.8081   Anisotropy =    19.4631
   XX=   209.6868   YX=     2.6895   ZX=     9.5943
   XY=     0.3241   YY=   209.7115   ZY=    -0.8591
   XZ=     7.1792   YZ=    -7.2214   ZZ=   222.0261
   Eigenvalues:   203.6718   210.9691   226.7835
     39  C    Isotropic =   212.4964   Anisotropy =    21.6624
   XX=   204.4936   YX=     4.1348   ZX=    -0.1983
   XY=     2.5373   YY=   219.7636   ZY=   -10.6324
   XZ=     1.2705   YZ=    -8.6529   ZZ=   213.2321
   Eigenvalues:   202.6917   207.8596   226.9380
     40  C    Isotropic =   212.0188   Anisotropy =    10.0193
   XX=   214.6579   YX=     2.8281   ZX=     2.8436
   XY=     2.0401   YY=   210.4095   ZY=     2.6984
   XZ=     4.8725   YZ=     3.1342   ZZ=   210.9889
   Eigenvalues:   207.6021   209.7559   218.6983
     41  N    Isotropic =   234.6013   Anisotropy =    25.4733
   XX=   230.2566   YX=   -24.9275   ZX=   -14.2267
   XY=    -1.9742   YY=   241.1599   ZY=    -2.1580
   XZ=    -3.4443   YZ=     1.9935   ZZ=   232.3874
   Eigenvalues:   217.3869   234.8335   251.5835
     42  C    Isotropic =   194.9140   Anisotropy =    49.7456
   XX=   204.0048   YX=    17.5000   ZX=     7.1173
   XY=    25.4466   YY=   202.8781   ZY=    15.7445
   XZ=    -0.2854   YZ=    12.8404   ZZ=   177.8592
   Eigenvalues:   169.9276   186.7367   228.0778
     43  C    Isotropic =   222.9486   Anisotropy =    10.6498
   XX=   224.4874   YX=    -1.4121   ZX=     1.3851
   XY=    -1.9134   YY=   228.5471   ZY=    -4.0090
   XZ=     1.7531   YZ=    -2.4965   ZZ=   215.8114
   Eigenvalues:   214.8902   223.9072   230.0485
     44  C    Isotropic =   215.7083   Anisotropy =    19.4248
   XX=   212.4886   YX=    10.0547   ZX=     3.9544
   XY=     5.3069   YY=   223.8369   ZY=     3.0201
   XZ=     1.2002   YZ=     3.5781   ZZ=   210.7992
   Eigenvalues:   208.2248   210.2418   228.6581
     45  C    Isotropic =   210.9730   Anisotropy =    37.5852
   XX=   203.6817   YX=     9.1284   ZX=     5.9324
   XY=     7.0861   YY=   213.6426   ZY=   -17.8803
   XZ=     1.5953   YZ=   -24.3572   ZZ=   215.5946
   Eigenvalues:   188.6549   208.2343   236.0298
     46  C    Isotropic =   191.7703   Anisotropy =    51.7363
   XX=   161.0928   YX=    12.0831   ZX=     9.9323
   XY=     3.9956   YY=   191.5903   ZY=    10.4856
   XZ=    10.7299   YZ=     3.3615   ZZ=   222.6279
   Eigenvalues:   157.9795   191.0703   226.2612
     47  C    Isotropic =   212.5486   Anisotropy =    21.7072
   XX=   211.3701   YX=     4.5770   ZX=    -1.1638
   XY=     2.7755   YY=   208.2963   ZY=    12.7323
   XZ=    -1.5020   YZ=    13.1479   ZZ=   217.9793
   Eigenvalues:   198.2310   212.3947   227.0200
     48  C    Isotropic =   209.4881   Anisotropy =     9.5865
   XX=   213.2533   YX=     0.8759   ZX=    -3.2307
   XY=     1.2040   YY=   199.6795   ZY=    -2.1647
   XZ=     1.5105   YZ=     4.8851   ZZ=   215.5315
   Eigenvalues:   199.4741   213.1111   215.8790
     49  C    Isotropic =    96.1305   Anisotropy =    99.2993
   XX=   149.7517   YX=   -19.1179   ZX=   -37.4078
   XY=   -23.9637   YY=    93.8770   ZY=   -95.7348
   XZ=   -32.6935   YZ=   -74.4349   ZZ=    44.7629
   Eigenvalues:   -28.6462   154.7077   162.3301
     50  O    Isotropic =  -133.8185   Anisotropy =   887.5019
   XX=   402.6500   YX=  -210.4816   ZX=   -45.4308
   XY=  -202.3486   YY=  -447.0992   ZY=   125.5905
   XZ=   -51.9649   YZ=   151.1950   ZZ=  -357.0063
   Eigenvalues:  -569.1373  -290.1677   457.8494
     51  O    Isotropic =   283.4279   Anisotropy =   138.5016
   XX=   359.3060   YX=    -2.4094   ZX=    14.0269
   XY=    17.3963   YY=   358.7017   ZY=   132.1808
   XZ=   -39.9275   YZ=    -7.5311   ZZ=   132.2760
   Eigenvalues:   115.4031   359.1183   375.7623
     52  C    Isotropic =   197.2114   Anisotropy =    57.5260
   XX=   180.2150   YX=     0.4234   ZX=     9.5734
   XY=     1.0039   YY=   178.6601   ZY=     8.2703
   XZ=     9.0786   YZ=     8.2305   ZZ=   232.7590
   Eigenvalues:   177.1395   178.9326   235.5620
     53  C    Isotropic =   209.9707   Anisotropy =    41.2588
   XX=   194.6297   YX=    -5.5221   ZX=    -0.1470
   XY=    -6.6280   YY=   236.6006   ZY=    -0.4706
   XZ=    -2.5751   YZ=    -1.4200   ZZ=   198.6818
   Eigenvalues:   193.3556   199.0799   237.4766
     54  O    Isotropic =     0.0981   Anisotropy =   523.2980
   XX=   191.1020   YX=  -212.4724   ZX=  -144.6531
   XY=  -190.5601   YY=   -97.4132   ZY=    65.3915
   XZ=  -134.1763   YZ=    70.1100   ZZ=   -93.3946
   Eigenvalues:  -201.1872  -147.4819   348.9634
     55  H    Isotropic =    26.0662   Anisotropy =    14.0134
   XX=    33.9059   YX=     1.6050   ZX=     4.1374
   XY=     1.2102   YY=    22.1091   ZY=    -1.2039
   XZ=     4.5620   YZ=    -1.4354   ZZ=    22.1837
   Eigenvalues:    19.5838    23.2064    35.4085
     56  H    Isotropic =    25.5591   Anisotropy =     8.3978
   XX=    29.1729   YX=    -1.4402   ZX=     1.7732
   XY=    -0.8097   YY=    25.6689   ZY=    -3.5328
   XZ=     2.7911   YZ=    -5.2807   ZZ=    21.8355
   Eigenvalues:    18.7782    26.7415    31.1577
     57  H    Isotropic =    26.5396   Anisotropy =     9.6452
   XX=    32.2196   YX=     2.1626   ZX=     1.8565
   XY=     1.7817   YY=    24.4751   ZY=    -3.0765
   XZ=     2.9125   YZ=    -3.7485   ZZ=    22.9241
   Eigenvalues:    19.4504    27.1987    32.9697
     58  H    Isotropic =    32.0835   Anisotropy =     8.0326
   XX=    33.5649   YX=     1.5108   ZX=     3.6693
   XY=     0.4979   YY=    28.0284   ZY=    -1.1726
   XZ=     2.7311   YZ=    -2.7301   ZZ=    34.6573
   Eigenvalues:    26.9197    31.8923    37.4386
     59  H    Isotropic =    32.1157   Anisotropy =    13.1676
   XX=    29.3060   YX=    -3.8484   ZX=    -1.9380
   XY=    -4.4768   YY=    39.3168   ZY=    -2.3647
   XZ=    -3.3843   YZ=    -1.5780   ZZ=    27.7244
   Eigenvalues:    24.5616    30.8914    40.8941
     60  H    Isotropic =    32.9766   Anisotropy =     9.0007
   XX=    35.8145   YX=     4.7123   ZX=     2.1209
   XY=     1.7753   YY=    31.3648   ZY=     4.0058
   XZ=    -0.4707   YZ=     5.2642   ZZ=    31.7504
   Eigenvalues:    26.5471    33.4055    38.9771
     61  H    Isotropic =    32.2774   Anisotropy =    15.5063
   XX=    35.6927   YX=    -5.7840   ZX=    -4.9280
   XY=    -6.2203   YY=    33.4482   ZY=     2.2692
   XZ=    -5.1267   YZ=     2.3791   ZZ=    27.6913
   Eigenvalues:    25.2147    29.0025    42.6149
     62  H    Isotropic =    32.6644   Anisotropy =    12.7824
   XX=    28.5165   YX=     2.1805   ZX=     1.4762
   XY=     0.8282   YY=    29.1474   ZY=     3.0877
   XZ=     0.3076   YZ=     2.8372   ZZ=    40.3294
   Eigenvalues:    27.1647    29.6426    41.1860
     63  H    Isotropic =    32.4315   Anisotropy =    11.7949
   XX=    31.2827   YX=    -1.2157   ZX=     2.6863
   XY=    -1.2900   YY=    30.6156   ZY=    -5.9035
   XZ=     3.0823   YZ=    -5.5888   ZZ=    35.3963
   Eigenvalues:    26.7008    30.2990    40.2948
     64  H    Isotropic =    31.6944   Anisotropy =    14.8191
   XX=    28.1979   YX=     2.0322   ZX=    -1.5333
   XY=     2.1369   YY=    41.1968   ZY=     1.3962
   XZ=    -2.2025   YZ=     0.9912   ZZ=    25.6886
   Eigenvalues:    24.4411    29.0684    41.5738
     65  H    Isotropic =    32.4044   Anisotropy =    17.4780
   XX=    31.9325   YX=     4.5615   ZX=    -6.4658
   XY=     4.6433   YY=    32.7575   ZY=    -5.8796
   XZ=    -7.0382   YZ=    -6.2272   ZZ=    32.5231
   Eigenvalues:    25.2482    27.9085    44.0564
     66  H    Isotropic =    31.8298   Anisotropy =    12.8412
   XX=    35.1222   YX=     4.5955   ZX=     5.0079
   XY=     4.6665   YY=    30.1726   ZY=     1.7504
   XZ=     4.6392   YZ=     1.6911   ZZ=    30.1946
   Eigenvalues:    26.6339    28.4649    40.3906
     67  H    Isotropic =    32.5543   Anisotropy =    12.5072
   XX=    27.5069   YX=     1.7849   ZX=    -1.3125
   XY=     1.3587   YY=    29.4634   ZY=     0.5918
   XZ=    -1.8226   YZ=     0.6296   ZZ=    40.6927
   Eigenvalues:    26.4386    30.3319    40.8924
     68  H    Isotropic =    32.2527   Anisotropy =    15.0242
   XX=    40.3017   YX=    -2.6113   ZX=    -4.7820
   XY=    -2.7177   YY=    29.4363   ZY=    -0.6718
   XZ=    -4.7751   YZ=    -0.6833   ZZ=    27.0202
   Eigenvalues:    24.9644    29.5249    42.2689
     69  H    Isotropic =    32.4790   Anisotropy =    11.7514
   XX=    29.0329   YX=    -2.4287   ZX=     4.9753
   XY=    -1.5037   YY=    30.4554   ZY=     0.0281
   XZ=     5.3307   YZ=     1.1312   ZZ=    37.9486
   Eigenvalues:    25.7929    31.3308    40.3132
     70  H    Isotropic =    33.1117   Anisotropy =    11.3645
   XX=    37.7955   YX=    -1.6204   ZX=    -6.4611
   XY=     0.3685   YY=    30.7614   ZY=     1.8830
   XZ=    -3.4760   YZ=     3.3056   ZZ=    30.7782
   Eigenvalues:    27.0406    31.6065    40.6880
     71  H    Isotropic =    32.1866   Anisotropy =    12.8082
   XX=    37.1454   YX=    -4.4609   ZX=     3.5882
   XY=    -3.2242   YY=    32.3756   ZY=    -3.0203
   XZ=     3.8080   YZ=    -1.9552   ZZ=    27.0389
   Eigenvalues:    25.5702    30.2642    40.7254
     72  H    Isotropic =    31.9268   Anisotropy =    15.1911
   XX=    27.1203   YX=    -1.2895   ZX=    -2.1591
   XY=     0.2208   YY=    38.8136   ZY=     5.8379
   XZ=    -0.5313   YZ=     6.5456   ZZ=    29.8464
   Eigenvalues:    25.8939    27.8322    42.0542
     73  H    Isotropic =    32.0109   Anisotropy =    15.3046
   XX=    41.2583   YX=    -3.4071   ZX=     0.0707
   XY=    -3.9153   YY=    27.0730   ZY=    -2.2753
   XZ=     0.8039   YZ=    -2.3592   ZZ=    27.7012
   Eigenvalues:    24.6458    29.1729    42.2140
     74  H    Isotropic =    30.3306   Anisotropy =    10.2992
   XX=    28.2988   YX=     4.6535   ZX=     3.3372
   XY=     4.5252   YY=    32.3678   ZY=     1.3901
   XZ=     3.8927   YZ=     2.1750   ZZ=    30.3253
   Eigenvalues:    24.4300    29.3652    37.1967
     75  H    Isotropic =    31.2260   Anisotropy =    12.4268
   XX=    31.0758   YX=    -5.6518   ZX=     1.3900
   XY=    -4.3893   YY=    33.7071   ZY=    -4.2970
   XZ=     2.1996   YZ=    -4.3010   ZZ=    28.8952
   Eigenvalues:    25.9704    28.1971    39.5106
     76  H    Isotropic =    30.5498   Anisotropy =    11.4257
   XX=    27.7138   YX=     3.0234   ZX=    -2.5344
   XY=     2.8155   YY=    29.0365   ZY=    -3.6041
   XZ=    -2.3172   YZ=    -4.5261   ZZ=    34.8989
   Eigenvalues:    25.3126    28.1698    38.1669
     77  H    Isotropic =    30.5290   Anisotropy =    12.1117
   XX=    31.8529   YX=     0.9901   ZX=     5.5536
   XY=     1.6018   YY=    25.8314   ZY=     0.8147
   XZ=     5.4430   YZ=     0.4116   ZZ=    33.9027
   Eigenvalues:    25.4965    27.4870    38.6034
     78  H    Isotropic =    30.6332   Anisotropy =     7.6643
   XX=    28.7531   YX=    -3.5838   ZX=    -1.6990
   XY=    -4.1745   YY=    31.0910   ZY=     2.6738
   XZ=    -0.5444   YZ=     2.0019   ZZ=    32.0555
   Eigenvalues:    25.8257    30.3312    35.7427
     79  H    Isotropic =    31.8688   Anisotropy =    11.3286
   XX=    27.9364   YX=     1.2121   ZX=     0.5492
   XY=     0.8389   YY=    38.8094   ZY=     1.5771
   XZ=    -0.4120   YZ=     3.0983   ZZ=    28.8606
   Eigenvalues:    27.8013    28.3839    39.4212
     80  H    Isotropic =    30.6979   Anisotropy =    13.9541
   XX=    30.8348   YX=     3.7985   ZX=    -3.5215
   XY=     3.6138   YY=    29.6576   ZY=    -6.7031
   XZ=    -3.5406   YZ=    -6.2218   ZZ=    31.6014
   Eigenvalues:    24.0414    28.0517    40.0006
     81  H    Isotropic =    30.8777   Anisotropy =    10.8539
   XX=    32.1260   YX=    -1.1229   ZX=     4.6698
   XY=    -1.6321   YY=    31.8187   ZY=    -5.2563
   XZ=     4.6787   YZ=    -4.3455   ZZ=    28.6886
   Eigenvalues:    23.9215    30.5980    38.1137
     82  H    Isotropic =    29.8758   Anisotropy =     9.7889
   XX=    30.7899   YX=     2.6587   ZX=     0.8537
   XY=     3.7831   YY=    30.2360   ZY=     4.5490
   XZ=     2.2882   YZ=     4.9218   ZZ=    28.6014
   Eigenvalues:    24.4634    28.7621    36.4017
     83  H    Isotropic =    30.0989   Anisotropy =    10.1378
   XX=    31.2723   YX=     2.0901   ZX=    -2.0428
   XY=     2.5914   YY=    27.2577   ZY=    -4.1186
   XZ=    -3.8183   YZ=    -4.4925   ZZ=    31.7668
   Eigenvalues:    24.6073    28.8321    36.8575
     84  H    Isotropic =    24.5385   Anisotropy =    15.3514
   XX=    33.1367   YX=     0.9127   ZX=    -4.9442
   XY=     0.0227   YY=    21.1205   ZY=     0.6852
   XZ=    -5.0867   YZ=     0.7262   ZZ=    19.3583
   Eigenvalues:    17.5400    21.3027    34.7727
     85  H    Isotropic =    25.9201   Anisotropy =     7.9359
   XX=    29.0238   YX=    -2.0214   ZX=    -1.3158
   XY=    -1.7415   YY=    28.5804   ZY=     0.6587
   XZ=    -2.4736   YZ=     2.2529   ZZ=    20.1561
   Eigenvalues:    19.6384    26.9112    31.2107
     86  H    Isotropic =    26.7556   Anisotropy =     9.3733
   XX=    32.0323   YX=     1.4719   ZX=    -2.8638
   XY=     0.8990   YY=    27.1614   ZY=     1.3401
   XZ=    -3.5970   YZ=     1.9500   ZZ=    21.0729
   Eigenvalues:    19.7054    27.5568    33.0044
     87  H    Isotropic =    30.6457   Anisotropy =     7.2884
   XX=    30.5089   YX=    -0.3573   ZX=    -3.0104
   XY=    -0.1168   YY=    28.2489   ZY=     0.0317
   XZ=    -3.1835   YZ=     3.1021   ZZ=    33.1793
   Eigenvalues:    27.5185    28.9141    35.5047
     88  H    Isotropic =    32.1398   Anisotropy =    13.4417
   XX=    29.5743   YX=    -2.9073   ZX=     3.3586
   XY=    -2.7931   YY=    39.2672   ZY=    -2.3888
   XZ=     4.9296   YZ=    -2.9333   ZZ=    27.5779
   Eigenvalues:    24.3054    31.0131    41.1010
     89  H    Isotropic =    32.7963   Anisotropy =     9.2131
   XX=    34.7012   YX=     3.1387   ZX=    -3.8605
   XY=     1.8110   YY=    27.9978   ZY=    -2.9016
   XZ=    -0.5652   YZ=    -3.4286   ZZ=    35.6900
   Eigenvalues:    26.5222    32.9285    38.9384
     90  H    Isotropic =    32.4256   Anisotropy =    13.5081
   XX=    27.5380   YX=     1.4853   ZX=     0.1436
   XY=     0.9910   YY=    28.4418   ZY=     0.7440
   XZ=     1.2524   YZ=     1.3886   ZZ=    41.2970
   Eigenvalues:    26.6717    29.1741    41.4310
     91  H    Isotropic =    32.2564   Anisotropy =    15.1640
   XX=    37.2597   YX=    -4.0085   ZX=     5.7056
   XY=    -4.3936   YY=    30.9859   ZY=    -3.0451
   XZ=     5.7405   YZ=    -2.8804   ZZ=    28.5236
   Eigenvalues:    25.5221    28.8814    42.3657
     92  H    Isotropic =    30.6799   Anisotropy =    13.1261
   XX=    28.0807   YX=     0.4867   ZX=    -0.3598
   XY=    -1.4751   YY=    32.7232   ZY=     7.4810
   XZ=    -1.4950   YZ=     7.1738   ZZ=    31.2358
   Eigenvalues:    24.5774    28.0316    39.4307
     93  H    Isotropic =    30.7908   Anisotropy =    13.7711
   XX=    27.7071   YX=     1.6112   ZX=     1.5749
   XY=    -0.0919   YY=    38.4365   ZY=    -4.2775
   XZ=     1.8019   YZ=    -4.8990   ZZ=    26.2288
   Eigenvalues:    23.8226    28.5783    39.9716
     94  H    Isotropic =    32.2773   Anisotropy =    18.2923
   XX=    34.5201   YX=     8.2217   ZX=     2.8594
   XY=     8.3859   YY=    36.4684   ZY=     1.8606
   XZ=     2.9939   YZ=     1.9979   ZZ=    25.8435
   Eigenvalues:    24.8767    27.4830    44.4722
     95  H    Isotropic =    32.5145   Anisotropy =    10.1298
   XX=    31.4558   YX=     2.6560   ZX=    -4.7959
   XY=     2.2068   YY=    30.3832   ZY=    -0.2104
   XZ=    -5.0726   YZ=    -0.5290   ZZ=    35.7043
   Eigenvalues:    27.1106    31.1651    39.2677
     96  H    Isotropic =    32.4499   Anisotropy =    13.3452
   XX=    27.6362   YX=     2.1559   ZX=     2.4331
   XY=     1.8718   YY=    30.3474   ZY=     3.6473
   XZ=     2.4639   YZ=     3.7620   ZZ=    39.3662
   Eigenvalues:    26.5441    29.4590    41.3467
     97  H    Isotropic =    32.3971   Anisotropy =    14.7372
   XX=    41.3195   YX=    -0.4679   ZX=     4.0577
   XY=    -0.9081   YY=    29.7100   ZY=    -0.2083
   XZ=     3.3864   YZ=     0.0562   ZZ=    26.1617
   Eigenvalues:    25.2955    29.6738    42.2219
     98  H    Isotropic =    31.7277   Anisotropy =    13.4673
   XX=    39.8271   YX=    -2.9529   ZX=     3.1201
   XY=    -1.1643   YY=    27.9987   ZY=    -3.0870
   XZ=     0.6736   YZ=    -5.1095   ZZ=    27.3573
   Eigenvalues:    23.5672    30.9100    40.7059
     99  H    Isotropic =    32.9167   Anisotropy =    10.2819
   XX=    28.9230   YX=    -2.6481   ZX=     0.4028
   XY=    -1.2582   YY=    31.6241   ZY=     3.7228
   XZ=    -0.1896   YZ=     3.3063   ZZ=    38.2030
   Eigenvalues:    27.5602    31.4186    39.7713
    100  H    Isotropic =    31.4570   Anisotropy =     7.9248
   XX=    31.6891   YX=     0.4253   ZX=    -3.1565
   XY=     0.8648   YY=    28.7903   ZY=    -0.7132
   XZ=    -3.9620   YZ=    -1.6516   ZZ=    33.8916
   Eigenvalues:    28.5080    29.1228    36.7402
    101  H    Isotropic =    30.9142   Anisotropy =    14.5624
   XX=    27.5542   YX=    -2.4007   ZX=     2.7603
   XY=    -2.0807   YY=    33.9302   ZY=    -5.5011
   XZ=     4.3281   YZ=    -7.8447   ZZ=    31.2581
   Eigenvalues:    24.7662    27.3539    40.6225
    102  H    Isotropic =    31.5766   Anisotropy =     9.5501
   XX=    28.1436   YX=     2.9032   ZX=    -2.6934
   XY=     2.0494   YY=    32.6756   ZY=    -2.5270
   XZ=    -3.8796   YZ=    -3.1886   ZZ=    33.9108
   Eigenvalues:    26.4135    30.3731    37.9434
    103  H    Isotropic =    32.1754   Anisotropy =    14.7330
   XX=    41.4533   YX=    -2.2601   ZX=     0.0066
   XY=    -2.8534   YY=    28.9499   ZY=     2.1819
   XZ=    -0.7640   YZ=     2.2856   ZZ=    26.1229
   Eigenvalues:    24.8406    29.6882    41.9974
    104  H    Isotropic =    31.1642   Anisotropy =    12.3778
   XX=    31.3514   YX=    -6.0265   ZX=     0.5239
   XY=    -4.7367   YY=    35.5258   ZY=     2.1442
   XZ=    -0.4316   YZ=     1.8298   ZZ=    26.6152
   Eigenvalues:    25.7274    28.3491    39.4160
    105  H    Isotropic =    30.6785   Anisotropy =     7.6344
   XX=    31.0154   YX=    -2.5660   ZX=     3.5700
   XY=    -3.4376   YY=    28.2046   ZY=    -0.4274
   XZ=     2.8117   YZ=     0.1720   ZZ=    32.8154
   Eigenvalues:    25.8576    30.4098    35.7681
    106  H    Isotropic =    30.5796   Anisotropy =    11.7407
   XX=    30.7881   YX=     0.2034   ZX=    -5.4880
   XY=     0.8648   YY=    26.6278   ZY=     0.9007
   XZ=    -5.5961   YZ=     1.4446   ZZ=    34.3229
   Eigenvalues:    25.5423    27.7898    38.4067
    107  H    Isotropic =    30.5411   Anisotropy =    11.7578
   XX=    26.4696   YX=     2.6626   ZX=     0.6410
   XY=     2.4090   YY=    34.2933   ZY=     4.5418
   XZ=     0.4891   YZ=     5.5270   ZZ=    30.8605
   Eigenvalues:    25.4419    27.8018    38.3796
    108  H    Isotropic =    30.9647   Anisotropy =    10.6758
   XX=    32.1814   YX=    -2.7329   ZX=    -4.2809
   XY=    -3.3471   YY=    34.6257   ZY=     2.5749
   XZ=    -3.7564   YZ=     1.6500   ZZ=    26.0870
   Eigenvalues:    24.0594    30.7528    38.0819
    109  H    Isotropic =    30.7565   Anisotropy =    13.9401
   XX=    30.5146   YX=     4.8448   ZX=     1.3456
   XY=     4.6785   YY=    35.0196   ZY=     5.3646
   XZ=     1.6669   YZ=     4.9098   ZZ=    26.7353
   Eigenvalues:    24.1709    28.0487    40.0499
    110  H    Isotropic =    31.9192   Anisotropy =    11.6324
   XX=    27.8459   YX=     0.4579   ZX=    -0.7508
   XY=     0.5490   YY=    35.7689   ZY=    -4.7095
   XZ=     0.4552   YZ=    -6.0932   ZZ=    32.1427
   Eigenvalues:    27.7641    28.3194    39.6741
 End of Minotr F.D. properties file   721 does not exist.
 End of Minotr F.D. properties file   722 does not exist.
 End of Minotr F.D. properties file   788 does not exist.
 Hyperfine terms turned off by default for NAtoms > 100.

 **********************************************************************

            Population analysis using the SCF Density.

 **********************************************************************

 Orbital symmetries:
       Occupied  (A) (A) (A) (A) (A) (A) (A) (A) (A) (A) (A) (A)
                 (A) (A) (A) (A) (A) (A) (A) (A) (A) (A) (A) (A)
                 (A) (A) (A) (A) (A) (A) (A) (A) (A) (A) (A) (A)
                 (A) (A) (A) (A) (A) (A) (A) (A) (A) (A) (A) (A)
                 (A) (A) (A) (A) (A) (A) (A) (A) (A) (A) (A) (A)
                 (A) (A) (A) (A) (A) (A) (A) (A) (A) (A) (A) (A)
                 (A) (A) (A) (A) (A) (A) (A) (A) (A) (A) (A) (A)
                 (A) (A) (A) (A) (A) (A) (A) (A) (A) (A) (A) (A)
                 (A) (A) (A) (A) (A) (A) (A) (A) (A) (A) (A) (A)
                 (A) (A) (A) (A) (A) (A) (A) (A) (A) (A) (A) (A)
                 (A) (A) (A) (A) (A) (A) (A) (A) (A) (A) (A) (A)
                 (A) (A) (A) (A) (A) (A) (A) (A) (A) (A) (A) (A)
                 (A) (A) (A) (A) (A) (A) (A) (A) (A) (A) (A) (A)
                 (A) (A) (A) (A) (A) (A) (A) (A) (A) (A) (A) (A)
                 (A) (A) (A) (A) (A) (A) (A) (A) (A) (A) (A) (A)
                 (A) (A) (A) (A) (A) (A) (A) (A) (A) (A) (A) (A)
                 (A) (A) (A) (A) (A)
       Virtual   (A) (A) (A) (A) (A) (A) (A) (A) (A) (A) (A) (A)
                 (A) (A) (A) (A) (A) (A) (A) (A) (A) (A) (A) (A)
                 (A) (A) (A) (A) (A) (A) (A) (A) (A) (A) (A) (A)
                 (A) (A) (A) (A) (A) (A) (A) (A) (A) (A) (A) (A)
                 (A) (A) (A) (A) (A) (A) (A) (A) (A) (A) (A) (A)
                 (A) (A) (A) (A) (A) (A) (A) (A) (A) (A) (A) (A)
                 (A) (A) (A) (A) (A) (A) (A) (A) (A) (A) (A) (A)
                 (A) (A) (A) (A) (A) (A) (A) (A) (A) (A) (A) (A)
                 (A) (A) (A) (A) (A) (A) (A) (A) (A) (A) (A) (A)
                 (A) (A) (A) (A) (A) (A) (A) (A) (A) (A) (A) (A)
                 (A) (A) (A) (A) (A) (A) (A) (A) (A)
 The electronic state is 1-A.
 Alpha  occ. eigenvalues --  -20.31242 -20.29606 -20.25119 -20.23608 -19.91683
 Alpha  occ. eigenvalues --  -15.47753 -15.33714 -15.32679 -15.29600 -11.17155
 Alpha  occ. eigenvalues --  -11.15488 -11.10936 -11.10098 -11.09755 -11.09283
 Alpha  occ. eigenvalues --  -11.09082 -11.08695 -11.08599 -11.08138 -11.07253
 Alpha  occ. eigenvalues --  -11.07137 -11.07081 -11.06844 -11.06511 -11.06242
 Alpha  occ. eigenvalues --  -11.06162 -11.06126 -11.05775 -11.05569 -11.05520
 Alpha  occ. eigenvalues --  -11.05328 -11.05024 -11.04922 -11.04911 -11.04692
 Alpha  occ. eigenvalues --  -11.04635 -11.04563 -11.03551 -11.03426 -11.03366
 Alpha  occ. eigenvalues --  -11.03169 -11.03107 -11.03090 -11.03016 -11.01348
 Alpha  occ. eigenvalues --  -11.01328 -11.01265 -11.01132 -11.01099 -11.00920
 Alpha  occ. eigenvalues --  -11.00889 -11.00795 -11.00737 -11.00518  -1.38420
 Alpha  occ. eigenvalues --   -1.36879  -1.28301  -1.28120  -1.26564  -1.21202
 Alpha  occ. eigenvalues --   -1.20848  -1.18629  -1.11915  -1.08669  -1.08136
 Alpha  occ. eigenvalues --   -1.06906  -1.06238  -1.04233  -1.03258  -1.00642
 Alpha  occ. eigenvalues --   -0.99833  -0.98609  -0.97947  -0.97355  -0.96527
 Alpha  occ. eigenvalues --   -0.95824  -0.94617  -0.93677  -0.93587  -0.92219
 Alpha  occ. eigenvalues --   -0.91704  -0.90950  -0.90652  -0.89211  -0.87722
 Alpha  occ. eigenvalues --   -0.86144  -0.84437  -0.82935  -0.82387  -0.80783
 Alpha  occ. eigenvalues --   -0.80659  -0.78857  -0.78705  -0.78063  -0.76459
 Alpha  occ. eigenvalues --   -0.76333  -0.74426  -0.73370  -0.72371  -0.72249
 Alpha  occ. eigenvalues --   -0.71570  -0.70348  -0.69280  -0.68735  -0.66915
 Alpha  occ. eigenvalues --   -0.65823  -0.64638  -0.63981  -0.63843  -0.62981
 Alpha  occ. eigenvalues --   -0.62457  -0.61830  -0.61718  -0.61390  -0.60768
 Alpha  occ. eigenvalues --   -0.60548  -0.59741  -0.59464  -0.59098  -0.58943
 Alpha  occ. eigenvalues --   -0.58311  -0.57801  -0.57581  -0.57392  -0.57216
 Alpha  occ. eigenvalues --   -0.56750  -0.56373  -0.56097  -0.55822  -0.55722
 Alpha  occ. eigenvalues --   -0.55318  -0.55141  -0.54445  -0.54266  -0.53696
 Alpha  occ. eigenvalues --   -0.53556  -0.53106  -0.52840  -0.52675  -0.52108
 Alpha  occ. eigenvalues --   -0.52002  -0.51125  -0.50844  -0.50554  -0.50180
 Alpha  occ. eigenvalues --   -0.49802  -0.49767  -0.49586  -0.48724  -0.48542
 Alpha  occ. eigenvalues --   -0.48304  -0.47930  -0.47535  -0.47271  -0.47124
 Alpha  occ. eigenvalues --   -0.46333  -0.46157  -0.46038  -0.45795  -0.45265
 Alpha  occ. eigenvalues --   -0.44938  -0.44812  -0.44757  -0.44303  -0.43930
 Alpha  occ. eigenvalues --   -0.43581  -0.43188  -0.42935  -0.42609  -0.42268
 Alpha  occ. eigenvalues --   -0.41970  -0.41363  -0.41126  -0.41013  -0.40787
 Alpha  occ. eigenvalues --   -0.40209  -0.39536  -0.39131  -0.38799  -0.37534
 Alpha  occ. eigenvalues --   -0.37230  -0.36638  -0.35438  -0.35266  -0.34530
 Alpha  occ. eigenvalues --   -0.33793  -0.33182  -0.32335  -0.32181  -0.30990
 Alpha  occ. eigenvalues --   -0.26800  -0.26394  -0.26097  -0.20966  -0.19703
 Alpha  occ. eigenvalues --   -0.15567  -0.15390
 Alpha virt. eigenvalues --    0.27385   0.27702   0.28216   0.29802   0.30030
 Alpha virt. eigenvalues --    0.31571   0.46716   0.47395   0.48981   0.49203
 Alpha virt. eigenvalues --    0.50178   0.50402   0.50821   0.51510   0.52887
 Alpha virt. eigenvalues --    0.52928   0.54369   0.54716   0.55783   0.56738
 Alpha virt. eigenvalues --    0.56842   0.57825   0.58332   0.58576   0.58671
 Alpha virt. eigenvalues --    0.59205   0.59669   0.60381   0.60577   0.61317
 Alpha virt. eigenvalues --    0.61591   0.61982   0.62482   0.62721   0.63308
 Alpha virt. eigenvalues --    0.63508   0.63888   0.64081   0.64231   0.64467
 Alpha virt. eigenvalues --    0.64794   0.65148   0.65534   0.65725   0.65799
 Alpha virt. eigenvalues --    0.65928   0.66537   0.66669   0.66883   0.67288
 Alpha virt. eigenvalues --    0.67619   0.67857   0.67981   0.68663   0.68948
 Alpha virt. eigenvalues --    0.69186   0.69215   0.69360   0.69882   0.70040
 Alpha virt. eigenvalues --    0.70370   0.70677   0.70884   0.71066   0.71333
 Alpha virt. eigenvalues --    0.71909   0.71985   0.72270   0.72509   0.72645
 Alpha virt. eigenvalues --    0.73036   0.73231   0.73404   0.73925   0.74179
 Alpha virt. eigenvalues --    0.74345   0.74470   0.75069   0.75228   0.75257
 Alpha virt. eigenvalues --    0.75519   0.75775   0.75996   0.76312   0.76515
 Alpha virt. eigenvalues --    0.76664   0.76996   0.77169   0.77308   0.77495
 Alpha virt. eigenvalues --    0.77851   0.78079   0.78598   0.78752   0.78970
 Alpha virt. eigenvalues --    0.79565   0.79802   0.80099   0.80149   0.80548
 Alpha virt. eigenvalues --    0.81085   0.81507   0.81691   0.81947   0.82139
 Alpha virt. eigenvalues --    0.82614   0.83346   0.83676   0.84047   0.84894
 Alpha virt. eigenvalues --    0.85746   0.86303   0.86744   0.87038   0.88229
 Alpha virt. eigenvalues --    0.88814   0.89907   0.91669   0.92778   0.94595
 Alpha virt. eigenvalues --    0.94874   0.96065   0.98687   1.00814   1.02266
 Alpha virt. eigenvalues --    1.11320   1.12374   1.16543   1.16850
          Condensed to atoms (all electrons):
 Mulliken charges:
               1
     1  C   -0.077453
     2  C    0.001581
     3  C   -0.061793
     4  C   -0.089381
     5  C    0.089253
     6  C   -0.015253
     7  N   -0.283476
     8  C    0.015375
     9  C    0.130008
    10  C    0.040679
    11  C   -0.114778
    12  C   -0.107920
    13  C    0.041582
    14  N   -0.294300
    15  C   -0.011716
    16  C   -0.095593
    17  C   -0.100355
    18  C   -0.099358
    19  C   -0.013259
    20  C   -0.104339
    21  C   -0.063931
    22  C    0.318347
    23  O   -0.274928
    24  O   -0.255771
    25  C   -0.055226
    26  C   -0.078592
    27  C   -0.109745
    28  C   -0.000106
    29  C   -0.072130
    30  C   -0.060946
    31  C   -0.091559
    32  C    0.088408
    33  C   -0.015282
    34  N   -0.287875
    35  C    0.021214
    36  C    0.128887
    37  C    0.040774
    38  C   -0.115672
    39  C   -0.104809
    40  C    0.028108
    41  N   -0.085602
    42  C   -0.007772
    43  C   -0.110750
    44  C   -0.102175
    45  C   -0.106802
    46  C   -0.012294
    47  C   -0.111599
    48  C   -0.067029
    49  C    0.320459
    50  O   -0.278767
    51  O   -0.254072
    52  C   -0.055689
    53  C   -0.078652
    54  O   -0.454027
    55  H    0.054632
    56  H    0.064806
    57  H    0.059956
    58  H    0.042002
    59  H    0.048982
    60  H    0.054393
    61  H    0.047889
    62  H    0.048827
    63  H    0.038204
    64  H    0.060561
    65  H    0.049191
    66  H    0.055887
    67  H    0.046444
    68  H    0.051026
    69  H    0.064803
    70  H    0.058599
    71  H    0.039113
    72  H    0.061188
    73  H    0.047611
    74  H    0.079417
    75  H    0.062759
    76  H    0.076200
    77  H    0.071006
    78  H    0.073918
    79  H    0.054560
    80  H    0.071491
    81  H    0.075120
    82  H    0.061339
    83  H    0.054431
    84  H    0.090684
    85  H    0.055268
    86  H    0.056949
    87  H    0.086160
    88  H    0.052582
    89  H    0.058239
    90  H    0.053979
    91  H    0.051257
    92  H    0.088851
    93  H    0.080582
    94  H    0.065541
    95  H    0.057229
    96  H    0.056696
    97  H    0.057149
    98  H    0.083032
    99  H    0.071150
   100  H    0.067506
   101  H    0.088992
   102  H    0.066133
   103  H    0.054791
   104  H    0.066868
   105  H    0.075949
   106  H    0.072908
   107  H    0.078890
   108  H    0.075113
   109  H    0.073411
   110  H    0.055837
 Sum of Mulliken charges =  -0.00000
 Mulliken charges with hydrogens summed into heavy atoms:
               1
     1  C   -0.022820
     2  C    0.001581
     3  C    0.003013
     4  C   -0.029425
     5  C    0.089253
     6  C   -0.015253
     7  N   -0.283476
     8  C    0.015375
     9  C    0.130008
    10  C    0.082681
    11  C   -0.011403
    12  C   -0.011204
    13  C    0.041582
    14  N   -0.294300
    15  C    0.087050
    16  C    0.009484
    17  C   -0.002885
    18  C    0.024044
    19  C    0.087043
    20  C    0.022689
    21  C   -0.001173
    22  C    0.318347
    23  O   -0.274928
    24  O   -0.255771
    25  C    0.165898
    26  C    0.122579
    27  C    0.006025
    28  C   -0.000106
    29  C    0.018554
    30  C   -0.005678
    31  C   -0.034609
    32  C    0.088408
    33  C   -0.015282
    34  N   -0.287875
    35  C    0.021214
    36  C    0.128887
    37  C    0.126934
    38  C   -0.004851
    39  C    0.000427
    40  C    0.028108
    41  N   -0.085602
    42  C    0.161660
    43  C    0.012020
    44  C    0.011670
    45  C    0.047381
    46  C    0.144204
    47  C    0.009324
    48  C   -0.000161
    49  C    0.320459
    50  O   -0.278767
    51  O   -0.254072
    52  C    0.172058
    53  C    0.125708
    54  O   -0.454027
 Electronic spatial extent (au):  <R**2>=          52130.8729
 Charge=             -0.0000 electrons
 Dipole moment (field-independent basis, Debye):
    X=             -4.4109    Y=              1.7420    Z=             -0.3718  Tot=              4.7569
 Quadrupole moment (field-independent basis, Debye-Ang):
   XX=           -260.9673   YY=           -298.8689   ZZ=           -293.2058
   XY=            -16.6318   XZ=             -3.8343   YZ=             -5.1568
 Traceless Quadrupole moment (field-independent basis, Debye-Ang):
   XX=             23.3801   YY=            -14.5216   ZZ=             -8.8585
   XY=            -16.6318   XZ=             -3.8343   YZ=             -5.1568
 Octapole moment (field-independent basis, Debye-Ang**2):
  XXX=           -389.0557  YYY=             29.3500  ZZZ=            106.3491  XYY=            -20.6798
  XXY=            -87.5827  XXZ=            -63.3215  XZZ=              1.7550  YZZ=             11.3262
  YYZ=             40.3874  XYZ=            -45.0360
 Hexadecapole moment (field-independent basis, Debye-Ang**3):
 XXXX=         -51737.3114 YYYY=          -6324.0654 ZZZZ=          -5319.0880 XXXY=           -520.6777
 XXXZ=             43.2259 YYYX=            -86.6395 YYYZ=             -4.3707 ZZZX=            158.1765
 ZZZY=            101.5484 XXYY=          -9735.7747 XXZZ=          -9812.9760 YYZZ=          -1953.6402
 XXYZ=            -85.5896 YYXZ=            -96.1149 ZZXY=           -164.9985
 N-N= 7.702438940133D+03 E-N=-2.078192420696D+04  KE= 2.279148359901D+03
 ******************************Gaussian NBO Version 3.1******************************
             N A T U R A L   A T O M I C   O R B I T A L   A N D
          N A T U R A L   B O N D   O R B I T A L   A N A L Y S I S
 ******************************Gaussian NBO Version 3.1******************************
       /RESON  / : Allow strongly delocalized NBO set
       /NLMO   / : Form Natural Localized Molecular Orbitals
       /NMR /    : Analyze NMR Sheilding Tensor 

 Analyzing the SCF density

 Job title: pleiokomenine_C_1a                                              

 Storage needed:    355564 in NPA,    438187 in NBO,   2133784 in NLMO ( 104796000 available)
 GSVD:  LWork=     -108884 too small for GESVD, short by      536270 words or      536270 for optimal perf.


 NATURAL POPULATIONS:  Natural atomic orbital occupancies 
                                                          
   NAO  Atom  No  lang   Type(AO)    Occupancy      Energy
 ----------------------------------------------------------
     1    C    1  S      Cor( 1S)     1.99993     -10.93645
     2    C    1  S      Val( 2S)     1.07800      -0.16792
     3    C    1  px     Val( 2p)     0.98381       0.14260
     4    C    1  py     Val( 2p)     0.99203       0.11461
     5    C    1  pz     Val( 2p)     1.00687       0.08710
 
     6    C    2  S      Cor( 1S)     1.99990     -10.94549
     7    C    2  S      Val( 2S)     1.07785      -0.17243
     8    C    2  px     Val( 2p)     0.94886       0.16531
     9    C    2  py     Val( 2p)     0.97699       0.12868
    10    C    2  pz     Val( 2p)     0.98047       0.10606
 
    11    C    3  S      Cor( 1S)     1.99994     -10.93556
    12    C    3  S      Val( 2S)     1.08499      -0.17063
    13    C    3  px     Val( 2p)     0.98074       0.14990
    14    C    3  py     Val( 2p)     0.98546       0.11707
    15    C    3  pz     Val( 2p)     0.98204       0.10348
 
    16    C    4  S      Cor( 1S)     1.99993     -10.93033
    17    C    4  S      Val( 2S)     1.07200      -0.16221
    18    C    4  px     Val( 2p)     0.98487       0.14836
    19    C    4  py     Val( 2p)     1.01157       0.10822
    20    C    4  pz     Val( 2p)     1.01837       0.08897
 
    21    C    5  S      Cor( 1S)     1.99985     -10.97786
    22    C    5  S      Val( 2S)     1.06171      -0.17656
    23    C    5  px     Val( 2p)     0.91546       0.17270
    24    C    5  py     Val( 2p)     0.98222       0.10296
    25    C    5  pz     Val( 2p)     0.92784       0.09773
 
    26    C    6  S      Cor( 1S)     1.99990     -10.93831
    27    C    6  S      Val( 2S)     1.08528      -0.18159
    28    C    6  px     Val( 2p)     0.96609       0.14899
    29    C    6  py     Val( 2p)     0.97999       0.11391
    30    C    6  pz     Val( 2p)     0.99330       0.10529
 
    31    N    7  S      Cor( 1S)     1.99998     -15.25955
    32    N    7  S      Val( 2S)     1.40745      -0.58542
    33    N    7  px     Val( 2p)     1.08018       0.01707
    34    N    7  py     Val( 2p)     1.23315      -0.03307
    35    N    7  pz     Val( 2p)     1.55172      -0.16075
 
    36    C    8  S      Cor( 1S)     1.99996     -10.99770
    37    C    8  S      Val( 2S)     1.10707      -0.22272
    38    C    8  px     Val( 2p)     0.95508       0.11359
    39    C    8  py     Val( 2p)     0.94653       0.12164
    40    C    8  pz     Val( 2p)     0.97566       0.08368
 
    41    C    9  S      Cor( 1S)     1.99996     -11.04173
    42    C    9  S      Val( 2S)     1.11247      -0.24761
    43    C    9  px     Val( 2p)     0.88287       0.12912
    44    C    9  py     Val( 2p)     0.92410       0.09531
    45    C    9  pz     Val( 2p)     0.90701       0.09800
 
    46    C   10  S      Cor( 1S)     1.99994     -11.00689
    47    C   10  S      Val( 2S)     1.09237      -0.20674
    48    C   10  px     Val( 2p)     0.97323       0.09432
    49    C   10  py     Val( 2p)     0.88645       0.10991
    50    C   10  pz     Val( 2p)     0.97526       0.10566
 
    51    C   11  S      Cor( 1S)     1.99994     -10.97140
    52    C   11  S      Val( 2S)     1.10434      -0.20637
    53    C   11  px     Val( 2p)     1.00730       0.09072
    54    C   11  py     Val( 2p)     0.99073       0.09451
    55    C   11  pz     Val( 2p)     0.98223       0.09331
 
    56    C   12  S      Cor( 1S)     1.99996     -10.96911
    57    C   12  S      Val( 2S)     1.08854      -0.18926
    58    C   12  px     Val( 2p)     1.00404       0.09640
    59    C   12  py     Val( 2p)     0.98888       0.09405
    60    C   12  pz     Val( 2p)     0.99671       0.09830
 
    61    C   13  S      Cor( 1S)     1.99998     -10.99672
    62    C   13  S      Val( 2S)     1.10021      -0.21382
    63    C   13  px     Val( 2p)     0.94907       0.11457
    64    C   13  py     Val( 2p)     0.94212       0.12147
    65    C   13  pz     Val( 2p)     0.94533       0.11737
 
    66    N   14  S      Cor( 1S)     1.99999     -15.22659
    67    N   14  S      Val( 2S)     1.41309      -0.56997
    68    N   14  px     Val( 2p)     1.38119      -0.07675
    69    N   14  py     Val( 2p)     1.06065       0.04456
    70    N   14  pz     Val( 2p)     1.42948      -0.09615
 
    71    C   15  S      Cor( 1S)     1.99994     -11.00440
    72    C   15  S      Val( 2S)     1.06922      -0.18428
    73    C   15  px     Val( 2p)     0.97006       0.08818
    74    C   15  py     Val( 2p)     0.97027       0.09664
    75    C   15  pz     Val( 2p)     0.94744       0.10986
 
    76    C   16  S      Cor( 1S)     1.99996     -10.97301
    77    C   16  S      Val( 2S)     1.08432      -0.18642
    78    C   16  px     Val( 2p)     0.98135       0.10042
    79    C   16  py     Val( 2p)     0.97483       0.10365
    80    C   16  pz     Val( 2p)     1.01819       0.09733
 
    81    C   17  S      Cor( 1S)     1.99995     -10.97385
    82    C   17  S      Val( 2S)     1.09039      -0.19204
    83    C   17  px     Val( 2p)     1.00568       0.09654
    84    C   17  py     Val( 2p)     0.97225       0.10157
    85    C   17  pz     Val( 2p)     0.99612       0.09665
 
    86    C   18  S      Cor( 1S)     1.99994     -10.96922
    87    C   18  S      Val( 2S)     1.09350      -0.19011
    88    C   18  px     Val( 2p)     1.02300       0.09829
    89    C   18  py     Val( 2p)     0.95651       0.09429
    90    C   18  pz     Val( 2p)     0.99348       0.10480
 
    91    C   19  S      Cor( 1S)     1.99995     -10.99957
    92    C   19  S      Val( 2S)     1.07100      -0.18289
    93    C   19  px     Val( 2p)     0.91419       0.11808
    94    C   19  py     Val( 2p)     0.99577       0.09001
    95    C   19  pz     Val( 2p)     0.97846       0.08922
 
    96    C   20  S      Cor( 1S)     1.99992     -10.97358
    97    C   20  S      Val( 2S)     1.10178      -0.20190
    98    C   20  px     Val( 2p)     0.98161       0.10021
    99    C   20  py     Val( 2p)     1.01734       0.09566
   100    C   20  pz     Val( 2p)     0.96610       0.09785
 
   101    C   21  S      Cor( 1S)     1.99994     -11.00075
   102    C   21  S      Val( 2S)     1.11377      -0.23268
   103    C   21  px     Val( 2p)     0.99280       0.07803
   104    C   21  py     Val( 2p)     1.00847       0.07538
   105    C   21  pz     Val( 2p)     0.96506       0.09082
 
   106    C   22  S      Cor( 1S)     1.99991     -11.10209
   107    C   22  S      Val( 2S)     1.05608      -0.25152
   108    C   22  px     Val( 2p)     0.84781       0.02948
   109    C   22  py     Val( 2p)     0.80640       0.17233
   110    C   22  pz     Val( 2p)     0.88899       0.10275
 
   111    O   23  S      Cor( 1S)     1.99999     -20.08856
   112    O   23  S      Val( 2S)     1.80837      -1.04778
   113    O   23  px     Val( 2p)     1.31977      -0.13468
   114    O   23  py     Val( 2p)     1.35232      -0.11206
   115    O   23  pz     Val( 2p)     1.82854      -0.30183
 
   116    O   24  S      Cor( 1S)     1.99999     -20.20544
   117    O   24  S      Val( 2S)     1.72950      -1.01795
   118    O   24  px     Val( 2p)     1.77089      -0.32831
   119    O   24  py     Val( 2p)     1.58735      -0.25710
   120    O   24  pz     Val( 2p)     1.17976      -0.07021
 
   121    C   25  S      Cor( 1S)     1.99984     -11.03786
   122    C   25  S      Val( 2S)     1.07659      -0.21919
   123    C   25  px     Val( 2p)     1.03757       0.04745
   124    C   25  py     Val( 2p)     1.01828       0.05174
   125    C   25  pz     Val( 2p)     0.83256       0.08744
 
   126    C   26  S      Cor( 1S)     1.99992     -11.00659
   127    C   26  S      Val( 2S)     1.06509      -0.18694
   128    C   26  px     Val( 2p)     1.04913       0.05811
   129    C   26  py     Val( 2p)     0.88051       0.11252
   130    C   26  pz     Val( 2p)     1.02161       0.07006
 
   131    C   27  S      Cor( 1S)     1.99996     -10.97203
   132    C   27  S      Val( 2S)     1.08184      -0.17651
   133    C   27  px     Val( 2p)     0.99610       0.10209
   134    C   27  py     Val( 2p)     1.01714       0.09836
   135    C   27  pz     Val( 2p)     0.99203       0.10400
 
   136    C   28  S      Cor( 1S)     1.99990     -10.94587
   137    C   28  S      Val( 2S)     1.07740      -0.17276
   138    C   28  px     Val( 2p)     0.95198       0.16091
   139    C   28  py     Val( 2p)     0.95762       0.17455
   140    C   28  pz     Val( 2p)     1.00038       0.06031
 
   141    C   29  S      Cor( 1S)     1.99993     -10.93382
   142    C   29  S      Val( 2S)     1.08635      -0.16768
   143    C   29  px     Val( 2p)     0.97303       0.14995
   144    C   29  py     Val( 2p)     0.99849       0.15595
   145    C   29  pz     Val( 2p)     0.99346       0.05541
 
   146    C   30  S      Cor( 1S)     1.99994     -10.94104
   147    C   30  S      Val( 2S)     1.08292      -0.17459
   148    C   30  px     Val( 2p)     0.97635       0.14494
   149    C   30  py     Val( 2p)     0.97647       0.15719
   150    C   30  pz     Val( 2p)     0.99547       0.05146
 
   151    C   31  S      Cor( 1S)     1.99993     -10.93461
   152    C   31  S      Val( 2S)     1.07066      -0.16674
   153    C   31  px     Val( 2p)     0.98585       0.14121
   154    C   31  py     Val( 2p)     0.98960       0.15104
   155    C   31  pz     Val( 2p)     1.04374       0.03769
 
   156    C   32  S      Cor( 1S)     1.99986     -10.98339
   157    C   32  S      Val( 2S)     1.05946      -0.18026
   158    C   32  px     Val( 2p)     0.91264       0.16441
   159    C   32  py     Val( 2p)     0.96932       0.13704
   160    C   32  pz     Val( 2p)     0.94674       0.05320
 
   161    C   33  S      Cor( 1S)     1.99990     -10.94104
   162    C   33  S      Val( 2S)     1.08192      -0.18197
   163    C   33  px     Val( 2p)     0.96567       0.14477
   164    C   33  py     Val( 2p)     0.96445       0.15613
   165    C   33  pz     Val( 2p)     1.01779       0.05695
 
   166    N   34  S      Cor( 1S)     1.99998     -15.26912
   167    N   34  S      Val( 2S)     1.40243      -0.59416
   168    N   34  px     Val( 2p)     1.08814       0.00345
   169    N   34  py     Val( 2p)     1.06445       0.02622
   170    N   34  pz     Val( 2p)     1.72151      -0.24387
 
   171    C   35  S      Cor( 1S)     1.99996     -11.01803
   172    C   35  S      Val( 2S)     1.11067      -0.24301
   173    C   35  px     Val( 2p)     0.96265       0.09102
   174    C   35  py     Val( 2p)     0.93975       0.10204
   175    C   35  pz     Val( 2p)     0.96454       0.07708
 
   176    C   36  S      Cor( 1S)     1.99996     -11.05631
   177    C   36  S      Val( 2S)     1.11125      -0.26156
   178    C   36  px     Val( 2p)     0.88584       0.11045
   179    C   36  py     Val( 2p)     0.89981       0.08670
   180    C   36  pz     Val( 2p)     0.93160       0.07772
 
   181    C   37  S      Cor( 1S)     1.99991     -11.03989
   182    C   37  S      Val( 2S)     1.12049      -0.26120
   183    C   37  px     Val( 2p)     0.97438       0.06330
   184    C   37  py     Val( 2p)     0.84804       0.09348
   185    C   37  pz     Val( 2p)     0.98421       0.06252
 
   186    C   38  S      Cor( 1S)     1.99994     -10.98695
   187    C   38  S      Val( 2S)     1.10442      -0.22190
   188    C   38  px     Val( 2p)     1.00289       0.07649
   189    C   38  py     Val( 2p)     0.99621       0.07933
   190    C   38  pz     Val( 2p)     0.98275       0.07613
 
   191    C   39  S      Cor( 1S)     1.99996     -10.98919
   192    C   39  S      Val( 2S)     1.09227      -0.21190
   193    C   39  px     Val( 2p)     1.00339       0.07765
   194    C   39  py     Val( 2p)     0.98274       0.07574
   195    C   39  pz     Val( 2p)     0.99429       0.08038
 
   196    C   40  S      Cor( 1S)     1.99998     -11.02359
   197    C   40  S      Val( 2S)     1.10502      -0.24652
   198    C   40  px     Val( 2p)     0.93865       0.09294
   199    C   40  py     Val( 2p)     0.95005       0.08924
   200    C   40  pz     Val( 2p)     0.95632       0.08108
 
   201    N   41  S      Cor( 1S)     1.99999     -15.41612
   202    N   41  S      Val( 2S)     1.40195      -0.65975
   203    N   41  px     Val( 2p)     1.26384      -0.13214
   204    N   41  py     Val( 2p)     1.15250      -0.09495
   205    N   41  pz     Val( 2p)     1.15552      -0.09934
 
   206    C   42  S      Cor( 1S)     1.99991     -11.03421
   207    C   42  S      Val( 2S)     1.08956      -0.23140
   208    C   42  px     Val( 2p)     0.89758       0.09481
   209    C   42  py     Val( 2p)     0.92693       0.06468
   210    C   42  pz     Val( 2p)     1.04254       0.04316
 
   211    C   43  S      Cor( 1S)     1.99997     -10.99843
   212    C   43  S      Val( 2S)     1.07901      -0.20932
   213    C   43  px     Val( 2p)     0.98449       0.07064
   214    C   43  py     Val( 2p)     1.00345       0.06488
   215    C   43  pz     Val( 2p)     1.01414       0.06865
 
   216    C   44  S      Cor( 1S)     1.99996     -10.99552
   217    C   44  S      Val( 2S)     1.08472      -0.21019
   218    C   44  px     Val( 2p)     1.00781       0.07074
   219    C   44  py     Val( 2p)     0.97682       0.07569
   220    C   44  pz     Val( 2p)     1.00047       0.07378
 
   221    C   45  S      Cor( 1S)     1.99994     -10.98754
   222    C   45  S      Val( 2S)     1.09369      -0.20814
   223    C   45  px     Val( 2p)     1.02843       0.06836
   224    C   45  py     Val( 2p)     0.96857       0.08534
   225    C   45  pz     Val( 2p)     0.99047       0.08741
 
   226    C   46  S      Cor( 1S)     1.99992     -11.02689
   227    C   46  S      Val( 2S)     1.09077      -0.22559
   228    C   46  px     Val( 2p)     1.02124       0.06213
   229    C   46  py     Val( 2p)     1.01116       0.05373
   230    C   46  pz     Val( 2p)     0.83868       0.09478
 
   231    C   47  S      Cor( 1S)     1.99992     -10.99611
   232    C   47  S      Val( 2S)     1.09906      -0.22388
   233    C   47  px     Val( 2p)     0.99752       0.06751
   234    C   47  py     Val( 2p)     0.98470       0.07491
   235    C   47  pz     Val( 2p)     0.99417       0.07042
 
[...]
  107      26.3217        0.0270      26.2947         0.4735      25.8482
 Sum       29.8721        8.2390      21.6331        -2.9316      32.8038

 Contributions to Isotropic shielding for atom   96 (    32.4499 ppm):
                         Standard Origin              Atomic Origin
 NLMO      Total    Paramagnetic  Diamagnetic   Paramagnetic  Diamagnetic
   89      -0.7118        1.0635      -1.7753        -1.4633       0.7515
   90      -0.0047        1.7498      -1.7545        -0.7514       0.7466
   94      -0.2252        1.6286      -1.8539        -1.0939       0.8687
   97       2.4417       -3.2160       5.6577         1.6288       0.8129
   98      -0.3617        0.9232      -1.2848        -0.2989      -0.0627
  102       0.1525       -1.0338       1.1864        -0.6348       0.7873
  105       1.2193        0.8180       0.4013         0.3377       0.8816
  108      26.2773        0.2273      26.0500         0.4787      25.7986
  109       1.3088        4.8632      -3.5544        -0.4810       1.7897
 Sum       30.0962        7.0238      23.0723        -2.2781      32.3743

 Contributions to Isotropic shielding for atom   97 (    32.3971 ppm):
                         Standard Origin              Atomic Origin
 NLMO      Total    Paramagnetic  Diamagnetic   Paramagnetic  Diamagnetic
   89      -0.4874        0.6944      -1.1818        -1.0213       0.5340
   94      -0.2695        2.3715      -2.6410        -0.9587       0.6892
   97       1.5054       -0.3613       1.8666         0.7337       0.7716
   98      -0.5804        2.8202      -3.4006        -1.6300       1.0497
  102       0.2504       -0.8383       1.0887         0.2626      -0.0122
  105       0.2015        4.2108      -4.0093        -0.7491       0.9506
  108       1.9155        3.7319      -1.8164         0.1403       1.7752
  109      26.5619       -0.6134      27.1754         0.7695      25.7925
  173       0.7561       -0.2440       1.0002         0.8688      -0.1127
 Sum       29.8536       11.7718      18.0818        -1.5844      31.4379

 Contributions to Isotropic shielding for atom   98 (    31.7277 ppm):
                         Standard Origin              Atomic Origin
 NLMO      Total    Paramagnetic  Diamagnetic   Paramagnetic  Diamagnetic
   71      -0.5887       -0.3706      -0.2181        -1.7198       1.1311
   80       0.1462       -0.8805       1.0268        -0.9499       1.0961
   85       2.1072       -0.9199       3.0271         1.2689       0.8383
   89       0.7319       -0.7543       1.4862        -0.2002       0.9321
  100       0.9328       -1.0268       1.9596         0.2834       0.6494
  111      25.3474        0.8221      24.5253         0.2176      25.1298
  112       1.9970       -1.0103       3.0073        -0.0129       2.0099
  114      -0.0618       -2.5843       2.5226        -1.1586       1.0968
  121       0.0779       -1.2740       1.3519        -0.7146       0.7925
  195      -0.0815        1.2683      -1.3497         0.7514      -0.8328
 Sum       30.6085       -6.7303      37.3389        -2.2347      32.8432

 Contributions to Isotropic shielding for atom   99 (    32.9167 ppm):
                         Standard Origin              Atomic Origin
 NLMO      Total    Paramagnetic  Diamagnetic   Paramagnetic  Diamagnetic
   80       0.4268       -0.5882       1.0150         0.0659       0.3609
   85       1.0965        0.9669       0.1296         0.3632       0.7333
   87      -0.0421       -1.0583       1.0162        -0.8814       0.8393
   98       0.2039       -1.1332       1.3371        -0.3779       0.5818
  110       0.3084        2.7172      -2.4088        -0.3513       0.6597
  111       2.4291       -1.2403       3.6694         0.4936       1.9355
  112      25.9403        0.2354      25.7049         0.4580      25.4823
  113       0.1453       -0.9605       1.1059        -0.8259       0.9712
  114       0.2744       -0.9208       1.1952        -0.4217       0.6961
  116      -0.0313       -1.2524       1.2211        -0.5804       0.5491
  118       0.8662       -1.4089       2.2751         0.0395       0.8267
  120       1.6737       -1.0563       2.7300         0.7561       0.9176
  121      -0.1600       -4.2120       4.0520        -1.1334       0.9734
  122       0.8393       -0.6643       1.5037         0.3632       0.4761
  123       0.2665       -1.0324       1.2989        -0.4978       0.7643
  191      -0.8708        1.8878      -2.7586        -0.0090      -0.8618
  193      -0.2096        0.8487      -1.0584         0.1549      -0.3645
 Sum       33.1567       -8.8717      42.0284        -2.3843      35.5410

 Contributions to Isotropic shielding for atom  100 (    31.4570 ppm):
                         Standard Origin              Atomic Origin
 NLMO      Total    Paramagnetic  Diamagnetic   Paramagnetic  Diamagnetic
   83      -0.2936        0.7700      -1.0635        -0.5207       0.2271
   85      -0.2148        1.1454      -1.3602        -0.7973       0.5825
   98       0.0897       -1.0344       1.1241        -0.7827       0.8724
   99      -0.2187        0.5997      -0.8184        -1.1242       0.9054
  100      -0.8288        2.7444      -3.5732        -1.4113       0.5825
  102       0.1670       -1.0042       1.1712        -0.6838       0.8507
  104       0.1017       -1.2113       1.3130        -0.6606       0.7623
  105       0.2644       -1.2240       1.4884        -0.2257       0.4902
  107      -0.2714       -3.3886       3.1172        -0.8000       0.5286
  110       1.0996       -0.3968       1.4963         0.2201       0.8795
  112       0.0574        1.2617      -1.2042        -0.8784       0.9358
  113      26.6916        0.0119      26.6797         1.1256      25.5661
  114       1.6075        1.9703      -0.3628        -0.2956       1.9031
  115       0.1717       -1.0601       1.2319        -0.4289       0.6007
  116      -0.4877       -3.5569       3.0691        -0.5083       0.0206
  121       0.1979       -1.3211       1.5190        -0.7753       0.9732
  191      -0.4651        0.8035      -1.2686         0.4223      -0.8875
 Sum       27.6683       -4.8906      32.5589        -8.1247      35.7930

 Contributions to Isotropic shielding for atom  101 (    30.9142 ppm):
                         Standard Origin              Atomic Origin
 NLMO      Total    Paramagnetic  Diamagnetic   Paramagnetic  Diamagnetic
   71      -0.1895       -0.1569      -0.0327        -1.0388       0.8492
  101       0.2028       -0.6479       0.8507        -0.8193       1.0221
  104      -0.0821       -2.5786       2.4965        -0.8446       0.7625
  107      -0.0111       -1.2550       1.2439        -0.5941       0.5831
  110       1.8486       -2.5418       4.3904         0.8785       0.9701
  111      -0.0763        1.0219      -1.0981        -1.2535       1.1773
  113       1.0152        2.6011      -1.5859        -0.7368       1.7521
  114      25.6792        0.6873      24.9918         0.7778      24.9013
  116      -0.1269       -1.0164       0.8895        -0.3909       0.2640
  121       0.0713       -0.9372       1.0086        -0.5491       0.6204
 Sum       28.3314       -4.8235      33.1549        -4.5708      32.9022

 Contributions to Isotropic shielding for atom  102 (    31.5767 ppm):
                         Standard Origin              Atomic Origin
 NLMO      Total    Paramagnetic  Diamagnetic   Paramagnetic  Diamagnetic
   83      -0.3686        0.9833      -1.3519        -1.1926       0.8240
   85      -0.1602        1.0126      -1.1728        -0.8772       0.7169
   97      -0.2227        0.9678      -1.1905        -0.9485       0.7258
   98       1.5124       -0.3719       1.8843         0.5777       0.9347
  102       0.3858       -1.1375       1.5233        -0.1190       0.5048
  105       0.0732       -1.1009       1.1741        -0.8636       0.9368
  107      -0.4403       -2.7722       2.3319        -0.8033       0.3630
  113      -0.3565       -1.2849       0.9284        -0.2212      -0.1354
  115       1.6060       -1.0272       2.6331         0.7563       0.8497
  116      26.3118       -0.0130      26.3248         0.6690      25.6429
  117       1.0615        4.9342      -3.8727        -0.8472       1.9087
  118      -0.6581        0.7377      -1.3958        -1.7526       1.0945
  119       0.3306        1.4596      -1.1290        -0.0960       0.4266
  120      -0.4669       -0.3885      -0.0785        -1.3450       0.8781
  121       0.3076        0.0856       0.2220        -1.4008       1.7084
 Sum       28.9155        2.0846      26.8308        -8.4640      37.3794

 Contributions to Isotropic shielding for atom  103 (    32.1754 ppm):
                         Standard Origin              Atomic Origin
 NLMO      Total    Paramagnetic  Diamagnetic   Paramagnetic  Diamagnetic
   86      -0.2264        0.9323      -1.1587        -1.0378       0.8114
   88       0.4129       -0.7429       1.1557         0.7649      -0.3520
   94      -0.2225        1.3510      -1.5735        -1.0800       0.8575
   97      -0.2838        1.8089      -2.0927        -1.1015       0.8177
   98       0.6885        2.4942      -1.8057        -0.2968       0.9853
  109       0.0021       -2.4064       2.4085        -0.7801       0.7822
  115       0.7805        2.4644      -1.6839        -0.2862       1.0667
  116       1.6366        4.1671      -2.5305        -0.2634       1.9000
  117      26.7763       -1.0160      27.7923         0.9382      25.8381
  118      -0.2824        1.2087      -1.4911        -0.6226       0.3402
  119      -0.2279        1.6233      -1.8512        -1.3793       1.1514
  120      -0.3150        0.0774      -0.3924        -1.0245       0.7095
  121       0.0079        0.5431      -0.5352        -1.0256       1.0335
 Sum       28.7466       12.5050      16.2416        -7.1947      35.9414

 Contributions to Isotropic shielding for atom  104 (    31.1641 ppm):
                         Standard Origin              Atomic Origin
 NLMO      Total    Paramagnetic  Diamagnetic   Paramagnetic  Diamagnetic
   81      -0.4241        1.1459      -1.5700        -1.1243       0.7001
   82      -0.3060        1.1373      -1.4433        -1.2526       0.9466
   86      -0.6084        2.2784      -2.8868        -1.7141       1.1057
   87       2.0232       -0.3893       2.4125         1.0843       0.9389
   98       0.2611       -0.9675       1.2286         0.0444       0.2167
  115       0.3575        5.0939      -4.7364        -0.7641       1.1216
  117      -0.0604       -1.6658       1.6055        -1.2289       1.1686
  118       0.5924        4.0405      -3.4481        -0.2988       0.8912
  119      26.0082       -1.1140      27.1222         0.4916      25.5167
  122      -0.3248       -0.5428       0.2180        -1.9978       1.6730
  127      -0.1973       -1.2227       1.0254        -0.6101       0.4127
  193      -0.2576       -0.6031       0.3454         0.7433      -1.0010
 Sum       27.0639        7.1910      19.8729        -6.6270      33.6908

 Contributions to Isotropic shielding for atom  105 (    30.6785 ppm):
                         Standard Origin              Atomic Origin
 NLMO      Total    Paramagnetic  Diamagnetic   Paramagnetic  Diamagnetic
  120      -0.1362       -0.4146       0.2783        -1.0444       0.9082
  121       0.1609       -0.5073       0.6682        -1.3636       1.5246
  123       2.6211       -5.1774       7.7985         1.2082       1.4129
  124      25.8328        1.0504      24.7824         0.6778      25.1551
  125       1.2262        1.2790      -0.0527        -0.6490       1.8752
  126       1.8043       -0.9760       2.7803        -0.2408       2.0451
  194      -0.2157       -1.0271       0.8114        -0.7481       0.5324
 Sum       31.2935       -5.7730      37.0664        -2.1599      33.4534

 Contributions to Isotropic shielding for atom  106 (    30.5796 ppm):
                         Standard Origin              Atomic Origin
 NLMO      Total    Paramagnetic  Diamagnetic   Paramagnetic  Diamagnetic
  120      -0.8146        0.2290      -1.0436        -1.7079       0.8932
  121      -0.1212        1.0706      -1.1918        -1.6826       1.5615
  122      -1.2380        0.7064      -1.9444        -2.0198       0.7818
  123       0.1064        3.4381      -3.3316        -1.3611       1.4676
  124       1.7373        0.2667       1.4706        -0.1346       1.8719
  125      26.3854        0.3967      25.9887         1.1536      25.2319
  126       1.2576        3.6837      -2.4260        -0.7844       2.0421
  191       0.3147       -0.9728       1.2874         1.0881      -0.7735
  193       1.4207       -1.2847       2.7055         1.4810      -0.0602
 Sum       29.0485        7.5337      21.5147        -3.9678      33.0163

 Contributions to Isotropic shielding for atom  107 (    30.5411 ppm):
                         Standard Origin              Atomic Origin
 NLMO      Total    Paramagnetic  Diamagnetic   Paramagnetic  Diamagnetic
  121       0.1031        0.2276      -0.1245        -0.9272       1.0303
  123       1.1648        0.1210       1.0438        -0.9104       2.0752
  124       1.9727       -1.2544       3.2271        -0.0234       1.9961
  125       0.7120        3.4507      -2.7388        -1.2736       1.9856
  126      25.9221        0.5220      25.4002         0.7505      25.1717
 Sum       29.8747        3.0669      26.8077        -2.3842      32.2588

 Contributions to Isotropic shielding for atom  108 (    30.9647 ppm):
                         Standard Origin              Atomic Origin
 NLMO      Total    Paramagnetic  Diamagnetic   Paramagnetic  Diamagnetic
   76      -0.3634        0.2017      -0.5651        -1.2165       0.8531
   81      -0.7424        1.6998      -2.4422        -1.4634       0.7210
   82       0.5714        1.1801      -0.6086        -0.6114       1.1828
   92      -0.1453       -1.5817       1.4364        -0.6672       0.5219
  119      -0.1915       -2.1053       1.9138        -0.7807       0.5892
  127      26.0561        0.0355      26.0206         0.6933      25.3628
  128       1.8700        2.3611      -0.4910        -0.1153       1.9853
  129       1.2556        2.6627      -1.4071        -0.5746       1.8302
  190       1.2560       -0.1258       1.3818         1.2573      -0.0014
  193      -0.9264        0.4377      -1.3641         0.3529      -1.2793
 Sum       28.6403        4.7658      23.8745        -3.1255      31.7657

 Contributions to Isotropic shielding for atom  109 (    30.7565 ppm):
                         Standard Origin              Atomic Origin
 NLMO      Total    Paramagnetic  Diamagnetic   Paramagnetic  Diamagnetic
   75      -0.5173        0.4913      -1.0085        -1.2318       0.7145
   76      -0.5406        0.2570      -0.7975        -1.9007       1.3601
   82       1.9578       -2.1580       4.1158         0.7105       1.2472
  127       1.4843        2.5436      -1.0594        -0.4846       1.9689
  128      25.8669        0.4861      25.3808         0.5380      25.3289
  129       1.7282        0.6016       1.1266        -0.0677       1.7959
  193      -0.5889        0.6760      -1.2649         0.2634      -0.8523
 Sum       29.3903        2.8975      26.4928        -2.1730      31.5633

 Contributions to Isotropic shielding for atom  110 (    31.9192 ppm):
                         Standard Origin              Atomic Origin
 NLMO      Total    Paramagnetic  Diamagnetic   Paramagnetic  Diamagnetic
   75      -0.3096        0.7396      -1.0492        -0.9321       0.6225
   76      -0.8995        0.5276      -1.4271        -2.0977       1.1982
   81      -0.4054        0.7996      -1.2050        -0.5964       0.1909
   82       1.5507       -1.4251       2.9758         0.7771       0.7736
   86       0.1345       -0.5614       0.6959        -0.8941       1.0286
   92      -0.1709       -2.1296       1.9587        -0.9101       0.7392
  127       1.6950        3.5590      -1.8640        -0.2193       1.9143
  128       1.9698        0.6385       1.3313         0.0741       1.8957
  129      26.5444        0.5628      25.9816         0.8470      25.6973
 Sum       30.1090        2.7110      27.3980        -3.9514      34.0604
 
 1\1\GINC-PCSN02\SP\RHF\STO-3G\C45H56N4O5\ABENIDD\30-May-2024\0\\# nmr=
 giao hf/sto-3g pop=nbo geom=connectivity\\pleiokomenine_C_1a\\0,1\C,0,
 0.,0.,0.\C,0,1.4016,0.,0.\C,0,2.0972,1.2291,0.\C,0,1.417,2.4529,-0.020
 2\C,0,0.0345,2.4466,-0.0495\C,0,-0.6604,1.2195,-0.0189\N,0,-0.8486,3.5
 627,-0.1241\C,0,-2.1354,1.5242,0.0786\C,0,-2.0984,2.9318,-0.6203\C,0,-
 3.1838,0.6546,-0.6162\C,0,-1.9649,2.7284,-2.1988\C,0,-3.1179,1.8973,-2
 .7641\C,0,-4.0402,1.4603,-1.6204\N,0,-4.0873,0.2547,0.4623\C,0,-5.0131
 ,-0.7798,0.064\C,0,-5.9378,-0.173,-1.0051\C,0,-5.1759,0.5441,-2.1356\C
 ,0,-2.478,1.38,1.5858\C,0,-3.2887,0.0838,1.6521\C,0,-4.5849,2.7706,-0.
 9491\C,0,-3.4262,3.7042,-0.466\C,0,-3.7134,4.3304,0.8893\O,0,-4.6687,4
 .0588,1.6062\O,0,-2.8178,5.3194,1.1654\C,0,-3.0008,5.9391,2.4376\C,0,-
 0.3201,4.7729,-0.7334\C,0,2.1671,-1.3039,0.0359\C,0,2.7498,-1.6272,1.3
 928\C,0,4.0998,-1.3619,1.6576\C,0,1.9338,-2.1505,2.4163\C,0,2.4516,-2.
 4266,3.6877\C,0,3.792,-2.1823,3.9343\C,0,4.599,-1.6333,2.923\N,0,4.517
 4,-2.421,5.1311\C,0,5.9688,-1.3489,3.4901\C,0,5.9218,-2.4138,4.6611\C,
 0,7.2349,-1.5872,2.6495\C,0,6.2848,-3.8433,4.0631\C,0,7.7074,-3.8598,3
 .4857\C,0,8.2645,-2.4206,3.4863\N,0,7.6987,-0.2068,2.2176\C,0,9.1435,-
 0.1528,1.7951\C,0,10.114,-0.9225,2.6697\C,0,9.6543,-2.3651,2.8445\C,0,
 5.9993,0.1635,3.8342\C,0,7.3505,0.687,3.3658\C,0,8.3538,-2.0226,4.9995
 \C,0,6.9961,-2.1661,5.7313\C,0,6.7509,-1.0255,6.7033\O,0,7.3478,0.0444
 ,6.6836\O,0,5.8319,-1.377,7.6432\C,0,5.5114,-0.3375,8.5678\C,0,4.0117,
 -3.4705,6.003\O,0,6.9634,0.1968,1.1106\H,0,-0.5563,-0.9306,0.0393\H,0,
 3.1865,1.2348,0.0258\H,0,1.9809,3.3783,-0.0134\H,0,-2.7182,-0.2186,-1.
 0934\H,0,-1.9478,3.7036,-2.7037\H,0,-1.0181,2.2504,-2.4792\H,0,-3.6721
 ,2.4838,-3.5074\H,0,-2.7142,1.0265,-3.2959\H,0,-4.4931,-1.6625,-0.3265
 \H,0,-5.6251,-1.1039,0.9133\H,0,-6.5712,-0.9591,-1.4321\H,0,-6.6153,0.
 5458,-0.5261\H,0,-4.7463,-0.2265,-2.7896\H,0,-5.8819,1.1149,-2.7504\H,
 0,-3.0938,2.1994,1.953\H,0,-1.6086,1.3207,2.2515\H,0,-2.6452,-0.8016,1
 .6007\H,0,-3.8924,0.0401,2.5633\H,0,-5.1935,3.323,-1.6781\H,0,-5.2692,
 2.5235,-0.1312\H,0,-3.4211,4.5659,-1.1512\H,0,-2.1955,6.6652,2.5793\H,
 0,-3.9566,6.471,2.4687\H,0,-2.9419,5.1974,3.2405\H,0,0.1442,4.5766,-1.
 7064\H,0,0.424,5.2373,-0.0774\H,0,-1.1151,5.5093,-0.8855\H,0,2.963,-1.
 2699,-0.72\H,0,1.5186,-2.1325,-0.2787\H,0,4.7376,-0.9147,0.8989\H,0,0.
 8784,-2.3329,2.227\H,0,1.7973,-2.8188,4.4572\H,0,7.0186,-2.1086,1.7065
 \H,0,6.208,-4.617,4.8379\H,0,5.5792,-4.1467,3.2797\H,0,7.6898,-4.2803,
 2.4725\H,0,8.3452,-4.5242,4.0824\H,0,9.1649,-0.5669,0.7786\H,0,9.4076,
 0.9091,1.7362\H,0,11.1038,-0.9149,2.1983\H,0,10.234,-0.427,3.6376\H,0,
 9.6357,-2.8582,1.8639\H,0,10.3843,-2.9119,3.4535\H,0,5.2332,0.7112,3.2
 666\H,0,5.7857,0.4013,4.875\H,0,8.1332,0.608,4.1171\H,0,7.3066,1.7166,
 2.9959\H,0,8.7816,-1.0288,5.1254\H,0,9.0739,-2.687,5.4994\H,0,7.0807,-
 3.0554,6.3746\H,0,5.1308,0.5432,8.0409\H,0,6.3876,-0.081,9.1713\H,0,4.
 7272,-0.707,9.2342\H,0,4.7186,-3.6771,6.8123\H,0,3.0726,-3.1588,6.4725
 \H,0,3.8398,-4.4077,5.4615\\Version=ES64L-G16RevB.01\State=1-A\HF=-230
 0.2220943\RMSD=9.824e-09\Dipole=1.1641337,-1.0880432,0.9816018\Quadrup
 ole=-0.74944,1.3126366,-0.5631966,-9.4918553,16.4700553,-6.6418811\PG=
 C01 [X(C45H56N4O5)]\\@


 IT CANNOT BE MY BEAUTY, FOR I HAVE NONE; AND IT CANNOT BE MY WIT,
 FOR HE HAS NOT ENOUGH TO KNOW THAT I HAVE ANY.
 -- CATHARINE SEDLEY, PUZZLED ABOUT WHY SHE WAS MISTRESS TO JAMES II
 Job cpu time:       0 days  0 hours 10 minutes  0.2 seconds.
 Elapsed time:       0 days  0 hours  1 minutes 41.8 seconds.
 File lengths (MBytes):  RWF=     67 Int=      0 D2E=      0 Chk=     10 Scr=      1
 Normal termination of Gaussian 16 at Thu May 30 09:00:49 2024.
