 Entering Gaussian System, Link 0=g16
 Input=1_pleiokomenine_1a_c_24.gjf
 Output=1_pleiokomenine_1a_c_24.log
 Initial command:
 /opt/gaussian/g16/l1.exe "/data/abenidd/Elvis/pleiokomenine_C/NMR_HF/1a/1_pleiokomenine_1a_c_24/Gau-25618.inp" -scrdir="/data/abenidd/Elvis/pleiokomenine_C/NMR_HF/1a/1_pleiokomenine_1a_c_24/"
 Entering Link 1 = /opt/gaussian/g16/l1.exe PID=     25620.
  
 Copyright (c) 1988-2017, Gaussian, Inc.  All Rights Reserved.
  
 This is part of the Gaussian(R) 16 program.  It is based on
 the Gaussian(R) 09 system (copyright 2009, Gaussian, Inc.),
 the Gaussian(R) 03 system (copyright 2003, Gaussian, Inc.),
 the Gaussian(R) 98 system (copyright 1998, Gaussian, Inc.),
 the Gaussian(R) 94 system (copyright 1995, Gaussian, Inc.),
 the Gaussian 92(TM) system (copyright 1992, Gaussian, Inc.),
 the Gaussian 90(TM) system (copyright 1990, Gaussian, Inc.),
 the Gaussian 88(TM) system (copyright 1988, Gaussian, Inc.),
 the Gaussian 86(TM) system (copyright 1986, Carnegie Mellon
 University), and the Gaussian 82(TM) system (copyright 1983,
 Carnegie Mellon University). Gaussian is a federally registered
 trademark of Gaussian, Inc.
  
 This software contains proprietary and confidential information,
 including trade secrets, belonging to Gaussian, Inc.
  
 This software is provided under written license and may be
 used, copied, transmitted, or stored only in accord with that
 written license.
  
 The following legend is applicable only to US Government
 contracts under FAR:
  
                    RESTRICTED RIGHTS LEGEND
  
 Use, reproduction and disclosure by the US Government is
 subject to restrictions as set forth in subparagraphs (a)
 and (c) of the Commercial Computer Software - Restricted
 Rights clause in FAR 52.227-19.
  
 Gaussian, Inc.
 340 Quinnipiac St., Bldg. 40, Wallingford CT 06492
  
  
 ---------------------------------------------------------------
 Warning -- This program may not be used in any manner that
 competes with the business of Gaussian, Inc. or will provide
 assistance to any competitor of Gaussian, Inc.  The licensee
 of this program is prohibited from giving any competitor of
 Gaussian, Inc. access to this program.  By using this program,
 the user acknowledges that Gaussian, Inc. is engaged in the
 business of creating and licensing software in the field of
 computational chemistry and represents and warrants to the
 licensee that it is not a competitor of Gaussian, Inc. and that
 it will not use this program in any manner prohibited above.
 ---------------------------------------------------------------
  

 Cite this work as:
 Gaussian 16, Revision B.01,
 M. J. Frisch, G. W. Trucks, H. B. Schlegel, G. E. Scuseria, 
 M. A. Robb, J. R. Cheeseman, G. Scalmani, V. Barone, 
 G. A. Petersson, H. Nakatsuji, X. Li, M. Caricato, A. V. Marenich, 
 J. Bloino, B. G. Janesko, R. Gomperts, B. Mennucci, H. P. Hratchian, 
 J. V. Ortiz, A. F. Izmaylov, J. L. Sonnenberg, D. Williams-Young, 
 F. Ding, F. Lipparini, F. Egidi, J. Goings, B. Peng, A. Petrone, 
 T. Henderson, D. Ranasinghe, V. G. Zakrzewski, J. Gao, N. Rega, 
 G. Zheng, W. Liang, M. Hada, M. Ehara, K. Toyota, R. Fukuda, 
 J. Hasegawa, M. Ishida, T. Nakajima, Y. Honda, O. Kitao, H. Nakai, 
 T. Vreven, K. Throssell, J. A. Montgomery, Jr., J. E. Peralta, 
 F. Ogliaro, M. J. Bearpark, J. J. Heyd, E. N. Brothers, K. N. Kudin, 
 V. N. Staroverov, T. A. Keith, R. Kobayashi, J. Normand, 
 K. Raghavachari, A. P. Rendell, J. C. Burant, S. S. Iyengar, 
 J. Tomasi, M. Cossi, J. M. Millam, M. Klene, C. Adamo, R. Cammi, 
 J. W. Ochterski, R. L. Martin, K. Morokuma, O. Farkas, 
 J. B. Foresman, and D. J. Fox, Gaussian, Inc., Wallingford CT, 2016.
 
 ******************************************
 Gaussian 16:  ES64L-G16RevB.01 20-Dec-2017
                30-May-2024 
 ******************************************
 %nprocshared=8
 Will use up to    8 processors via shared memory.
 ----------------------------------------------
 # nmr=giao hf/sto-3g pop=nbo geom=connectivity
 ----------------------------------------------
 1/38=1,57=2,172=1/1;
 2/12=2,17=6,18=5,40=1/2;
 3/6=3,11=9,25=1,30=1/1,2,3,8;
 4//1;
 5/5=2,38=5/2;
 8/6=1,10=90,11=11/1;
 10/13=100,45=16/2;
 6/7=2,8=2,9=2,10=2,28=1,40=1,64=1/1,7;
 99/9=1/99;
 ------------------
 pleiokomenine_C_1a
 ------------------
 Symbolic Z-matrix:
 Charge =  0 Multiplicity = 1
 C                     0.        0.        0. 
 C                     1.4021    0.        0. 
 C                     2.0977    1.228     0. 
 C                     1.4154    2.4517   -0.0068 
 C                     0.0319    2.4449   -0.008 
 C                    -0.6609    1.2176    0.014 
 N                    -0.8532    3.5606   -0.0247 
 C                    -2.1315    1.5126    0.1789 
 C                    -2.1238    2.9383   -0.4823 
 C                    -3.2085    0.6615   -0.4949 
 C                    -2.0561    2.7778   -2.0701 
 C                    -3.2302    1.9598   -2.6101 
 C                    -4.105     1.4919   -1.4419 
 N                    -4.0706    0.2388    0.6093 
 C                    -5.002    -0.7954    0.2193 
 C                    -5.9724   -0.1655   -0.7948 
 C                    -5.2602    0.5875   -1.9348 
 C                    -2.4097    1.3182    1.6953 
 C                    -3.2124    0.0152    1.7509 
 C                    -4.622     2.7835   -0.7142 
 C                    -3.4444    3.7035   -0.2511 
 C                    -3.674     4.2889    1.1331 
 O                    -4.6026    4.0039    1.8791 
 O                    -2.7614    5.2648    1.4032 
 C                    -2.8955    5.8514    2.6968 
 C                    -0.3526    4.7851   -0.6279 
 C                     2.1595   -1.3078    0.1007 
 C                     2.5224   -1.6742    1.5243 
 C                     1.512    -1.9121    2.4652 
 C                     3.872    -1.7863    1.9202 
 C                     4.2219   -2.1031    3.2416 
 C                     3.2165   -2.2869    4.1743 
 C                     1.8729   -2.2035    3.7696 
 N                     3.3368   -2.5369    5.5722 
 C                     0.9895   -2.532     4.9444 
 C                     2.007    -2.1011    6.0707 
 C                    -0.3413   -1.7983    5.1628 
 C                     2.0027   -0.5175    6.2015 
 C                     0.6154    0.0071    6.5697 
 C                    -0.4004   -1.1558    6.5832 
 N                    -1.4362   -2.8194    4.8795 
 C                    -2.6858   -2.5995    5.7005 
 C                    -2.9018   -1.127     5.9808 
 C                    -1.8083   -0.6021    6.9107 
 C                     0.6268   -4.0242    4.7708 
 C                    -0.8262   -4.1613    5.167 
 C                     0.1023   -2.1359    7.6968 
 C                     1.5756   -2.5901    7.4645 
 C                     1.7808   -4.0647    7.7549 
 O                     0.8847   -4.8982    7.7951 
 O                     3.0879   -4.3267    8.0289 
 C                     3.3719   -5.7045    8.2726 
 C                     4.5668   -2.0845    6.2054 
 O                    -1.776    -2.7507    3.5421 
 H                    -0.5571   -0.9313    0.0515 
 H                     3.1853    1.2328    0.0289 
 H                     1.9753    3.3792    0.006 
 H                    -2.7633   -0.1998   -1.0118 
 H                    -1.121     2.3098   -2.4019 
 H                    -2.0613    3.7662   -2.5487 
 H                    -3.8143    2.5644   -3.3149 
 H                    -2.8477    1.1038   -3.18 
 H                    -4.4912   -1.6623   -0.2164 
 H                    -5.5774   -1.1481    1.0826 
 H                    -6.6337    0.5358   -0.2694 
 H                    -6.6184   -0.9435   -1.2176 
 H                    -4.8572   -0.1624   -2.6286 
 H                    -5.9927    1.1736   -2.5024 
 H                    -3.0129    2.1229    2.1138 
 H                    -1.5137    1.2405    2.3228 
 H                    -2.5716   -0.864     1.6265 
 H                    -3.7705   -0.0686    2.6877 
 H                    -5.2576    3.3555   -1.404 
 H                    -5.2748    2.5147    0.1226 
 H                    -3.4674    4.5853   -0.9097 
 H                    -2.8114    5.0886    3.4774 
 H                    -2.0821    6.5702    2.8284 
 H                    -3.8469    6.3863    2.7765 
 H                     0.0731    4.611    -1.6226 
 H                     0.4163    5.2374    0.0075 
 H                    -1.1548    5.5222   -0.7317 
 H                     3.0621   -1.2421   -0.5206 
 H                     1.5668   -2.1225   -0.3356 
 H                     0.461    -1.8778    2.1883 
 H                     4.6658   -1.6211    1.1948 
 H                     5.2677   -2.1812    3.5144 
 H                    -0.4934   -1.0107    4.4108 
 H                     2.7193   -0.196     6.9688 
 H                     2.3334   -0.0231    5.2797 
 H                     0.6531    0.4991    7.5501 
 H                     0.3162    0.7796    5.8495 
 H                    -3.5141   -3.0293    5.126 
 H                    -2.591    -3.1588    6.6363 
 H                    -3.8817   -0.9687    6.4446 
 H                    -2.8942   -0.5565    5.0447 
 H                    -2.0754   -0.8544    7.9449 
 H                    -1.8246    0.494     6.8635 
 H                     0.6986   -4.3357    3.719 
 H                     1.2796   -4.7117    5.3119 
 H                    -1.3683   -4.914     4.5855 
 H                    -0.9436   -4.3757    6.2278 
 H                    -0.5831   -2.9794    7.8016 
 H                     0.0611   -1.6244    8.6692 
 H                     2.1781   -2.0785    8.2308 
 H                     4.4496   -5.8058    8.4272 
 H                     3.0875   -6.3148    7.4095 
 H                     2.8578   -6.0456    9.1764 
 H                     4.4984   -2.1767    7.2935 
 H                     5.4111   -2.7043    5.8849 
 H                     4.7917   -1.0377    5.9717 
 
 Stoichiometry    C45H56N4O5
 Framework group  C1[X(C45H56N4O5)]
 Deg. of freedom   324
 Full point group                 C1      NOp   1
 Largest Abelian subgroup         C1      NOp   1
 Largest concise Abelian subgroup C1      NOp   1
                         Standard orientation:                         
 ---------------------------------------------------------------------
 Center     Atomic      Atomic             Coordinates (Angstroms)
 Number     Number       Type             X           Y           Z
 ---------------------------------------------------------------------
      1          6           0       -1.725974    1.859127   -1.366186
      2          6           0       -1.049380    3.073769   -1.185217
      3          6           0       -1.409096    3.917253   -0.112378
      4          6           0       -2.435836    3.569339    0.775193
      5          6           0       -3.100404    2.370027    0.590479
      6          6           0       -2.725034    1.519000   -0.468563
      7          7           0       -4.170464    1.829790    1.359623
      8          6           0       -3.491548    0.227129   -0.325713
      9          6           0       -4.736972    0.817214    0.429657
     10          6           0       -3.979533   -0.563291   -1.540379
     11          6           0       -5.674365    1.573803   -0.619305
     12          6           0       -6.138546    0.644292   -1.741704
     13          6           0       -5.515151   -0.741995   -1.545530
     14          7           0       -3.418369   -1.900309   -1.343836
     15          6           0       -3.542777   -2.730888   -2.520202
     16          6           0       -5.045354   -2.982116   -2.734666
     17          6           0       -5.889814   -1.693720   -2.707091
     18          6           0       -2.502473   -0.748633    0.370185
     19          6           0       -2.114817   -1.725152   -0.743979
     20          6           0       -6.009790   -1.270814   -0.152422
     21          6           0       -5.653064   -0.282935    1.007080
     22          6           0       -5.170449   -1.002897    2.256142
     23          8           0       -4.958696   -2.205958    2.344709
     24          8           0       -5.102215   -0.144960    3.313242
     25          6           0       -4.634734   -0.740334    4.522570
     26          6           0       -5.025347    2.780764    2.051486
     27          6           0        0.123965    3.427108   -2.075468
     28          6           0        1.457799    3.015625   -1.488824
     29          6           0        1.733637    1.661404   -1.259050
     30          6           0        2.437073    3.980924   -1.172683
     31          6           0        3.668257    3.614858   -0.607820
     32          6           0        3.910394    2.279348   -0.338889
     33          6           0        2.944388    1.317660   -0.682382
     34          7           0        5.044073    1.692339    0.294584
     35          6           0        3.489104   -0.051765   -0.371861
     36          6           0        4.488679    0.396809    0.763553
     37          6           0        2.577376   -1.161049    0.171538
     38          6           0        3.677254    0.643633    2.107273
     39          6           0        2.956763   -0.624431    2.563654
     40          6           0        3.134120   -1.738737    1.509502
     41          7           0        2.437947   -2.179716   -0.953001
     42          6           0        2.259003   -3.596273   -0.457783
     43          6           0        1.508227   -3.623318    0.857165
     44          6           0        2.360015   -3.000241    1.962701
     45          6           0        4.043075   -0.578931   -1.714828
     46          6           0        3.684291   -2.046573   -1.780256
     47          6           0        4.675799   -2.007082    1.441483
     48          6           0        5.488731   -0.713138    1.132091
     49          6           0        6.616818   -0.958037    0.148055
     50          8           0        6.683248   -1.916297   -0.611325
     51          8           0        7.579015   -0.002961    0.267373
     52          6           0        8.659108   -0.139153   -0.656331
     53          6           0        5.804533    2.555746    1.186065
     54          8           0        1.341437   -1.846217   -1.724537
     55          1           0       -1.433025    1.170168   -2.153491
     56          1           0       -0.867675    4.847108    0.048754
     57          1           0       -2.682317    4.230440    1.597447
     58          1           0       -3.622354   -0.109105   -2.474919
     59          1           0       -5.179815    2.444507   -1.067439
     60          1           0       -6.556372    1.983048   -0.108814
     61          1           0       -7.233714    0.580662   -1.745554
     62          1           0       -5.850039    1.069548   -2.711111
     63          1           0       -3.096515   -2.258274   -3.403238
     64          1           0       -3.043870   -3.695137   -2.371596
     65          1           0       -5.410530   -3.658800   -1.951130
     66          1           0       -5.199036   -3.500128   -3.688294
     67          1           0       -5.734285   -1.172973   -3.661424
     68          1           0       -6.954442   -1.952566   -2.664613
     69          1           0       -2.969594   -1.305593    1.181436
     70          1           0       -1.606815   -0.275937    0.790856
     71          1           0       -1.390851   -1.285340   -1.437904
     72          1           0       -1.710721   -2.655433   -0.334863
     73          1           0       -7.101327   -1.392344   -0.180238
     74          1           0       -5.613450   -2.273484    0.037850
     75          1           0       -6.603570    0.172670    1.324597
     76          1           0       -3.640611   -1.175711    4.379599
     77          1           0       -4.561325    0.044859    5.279995
     78          1           0       -5.343483   -1.496222    4.874621
     79          1           0       -5.385981    3.572356    1.384939
     80          1           0       -4.485868    3.243689    2.884660
     81          1           0       -5.899211    2.278091    2.477275
     82          1           0        0.107172    4.507341   -2.269972
     83          1           0        0.007766    2.954273   -3.059496
     84          1           0        1.022026    0.884855   -1.529292
     85          1           0        2.241875    5.034243   -1.362498
     86          1           0        4.399423    4.380194   -0.375712
     87          1           0        1.555506   -0.792855    0.342322
     88          1           0        4.353698    0.974999    2.906177
     89          1           0        2.940936    1.450569    2.006285
     90          1           0        3.351441   -0.945650    3.536134
     91          1           0        1.893708   -0.401241    2.721974
     92          1           0        1.718811   -4.134220   -1.244971
     93          1           0        3.246755   -4.053760   -0.345636
     94          1           0        1.255634   -4.654222    1.128839
     95          1           0        0.563346   -3.074787    0.767026
     96          1           0        3.065034   -3.756226    2.331487
     97          1           0        1.699920   -2.777668    2.810442
     98          1           0        3.551316   -0.094645   -2.570463
     99          1           0        5.108956   -0.396846   -1.864277
    100          1           0        3.460379   -2.396708   -2.793094
    101          1           0        4.457861   -2.677658   -1.346241
    102          1           0        4.892731   -2.814451    0.739097
    103          1           0        5.016015   -2.389152    2.414708
    104          1           0        6.001799   -0.442868    2.067865
    105          1           0        9.339825    0.703568   -0.507852
    106          1           0        8.290752   -0.108744   -1.686710
    107          1           0        9.208089   -1.066628   -0.466826
    108          1           0        6.550791    1.978539    1.740206
    109          1           0        6.348777    3.312820    0.611303
    110          1           0        5.164131    3.063277    1.916327
 ---------------------------------------------------------------------
 Rotational constants (GHZ):           0.0980645           0.0320726           0.0296778
 Standard basis: STO-3G (5D, 7F)
 There are   326 symmetry adapted cartesian basis functions of A   symmetry.
 There are   326 symmetry adapted basis functions of A   symmetry.
   326 basis functions,   978 primitive gaussians,   326 cartesian basis functions
   197 alpha electrons      197 beta electrons
       nuclear repulsion energy      8125.1817484812 Hartrees.
 NAtoms=  110 NActive=  110 NUniq=  110 SFac= 1.00D+00 NAtFMM=   60 NAOKFM=T Big=T
 Integral buffers will be    131072 words long.
 Raffenetti 1 integral format.
 Two-electron integral symmetry is turned on.
 One-electron integrals computed using PRISM.
 NBasis=   326 RedAO= T EigKep=  1.72D-01  NBF=   326
 NBsUse=   326 1.00D-06 EigRej= -1.00D+00 NBFU=   326
 ExpMin= 1.69D-01 ExpMax= 1.31D+02 ExpMxC= 1.31D+02 IAcc=3 IRadAn=         5 AccDes= 0.00D+00
 Harris functional with IExCor=  205 and IRadAn=       5 diagonalized for initial guess.
 HarFok:  IExCor=  205 AccDes= 0.00D+00 IRadAn=         5 IDoV= 1 UseB2=F ITyADJ=14
 ICtDFT=  3500011 ScaDFX=  1.000000  1.000000  1.000000  1.000000
 FoFCou: FMM=F IPFlag=           0 FMFlag=      100000 FMFlg1=        2001
         NFxFlg=           0 DoJE=T BraDBF=F KetDBF=T FulRan=T
         wScrn=  0.000000 ICntrl=       500 IOpCl=  0 I1Cent=   200000004 NGrid=           0
         NMat0=    1 NMatS0=      1 NMatT0=    0 NMatD0=    1 NMtDS0=    0 NMtDT0=    0
 Petite list used in FoFCou.
 Requested convergence on RMS density matrix=1.00D-08 within 128 cycles.
 Requested convergence on MAX density matrix=1.00D-06.
 Requested convergence on             energy=1.00D-06.
 No special actions if energy rises.
 Integral accuracy reduced to 1.0D-05 until final iterations.
 Initial convergence to 1.0D-05 achieved.  Increase integral accuracy.
 SCF Done:  E(RHF) =  -2300.21489547     A.U. after   16 cycles
            NFock= 16  Conv=0.40D-08     -V/T= 2.0092
 Range of M.O.s used for correlation:     1   326
 NBasis=   326 NAE=   197 NBE=   197 NFC=     0 NFV=     0
 NROrb=    326 NOA=   197 NOB=   197 NVA=   129 NVB=   129
          Differentiating once with respect to magnetic field using GIAOs.
          Electric field/nuclear overlap derivatives assumed to be zero.
 FoFCou: FMM=F IPFlag=           0 FMFlag=      100000 FMFlg1=        2001
         NFxFlg=           0 DoJE=F BraDBF=F KetDBF=T FulRan=T
         wScrn=  0.000000 ICntrl=      6100 IOpCl=  0 I1Cent=           7 NGrid=         110
         NMat0=    1 NMatS0=      1 NMatT0=    0 NMatD0=    1 NMtDS0=    0 NMtDT0=    0
 Symmetry not used in FoFCou.
 FoFJK:  IHMeth= 1 ICntrl=    6127 DoSepK=F KAlg= 0 I1Cent=           0 FoldK=F
 IRaf=         1 NMat=       1 IRICut=       1 DoRegI=T DoRafI=F ISym2E= 0 IDoP0=0 IntGTp=1.
          There are     3 degrees of freedom in the 1st order CPHF.  IDoFFX=0 NUNeed=     3.
      3 vectors produced by pass  0 Test12= 8.47D-13 3.33D-08 XBig12= 1.90D+02 2.44D+00.
 AX will form     3 AO Fock derivatives at one time.
      3 vectors produced by pass  1 Test12= 8.47D-13 3.33D-08 XBig12= 8.94D-01 3.18D-01.
      3 vectors produced by pass  2 Test12= 8.47D-13 3.33D-08 XBig12= 1.90D-02 3.83D-02.
      3 vectors produced by pass  3 Test12= 8.47D-13 3.33D-08 XBig12= 6.25D-04 7.25D-03.
      3 vectors produced by pass  4 Test12= 8.47D-13 3.33D-08 XBig12= 1.88D-05 1.31D-03.
      3 vectors produced by pass  5 Test12= 8.47D-13 3.33D-08 XBig12= 4.04D-07 1.26D-04.
      3 vectors produced by pass  6 Test12= 8.47D-13 3.33D-08 XBig12= 1.79D-08 3.22D-05.
      3 vectors produced by pass  7 Test12= 8.47D-13 3.33D-08 XBig12= 4.20D-10 4.59D-06.
      3 vectors produced by pass  8 Test12= 8.47D-13 3.33D-08 XBig12= 7.30D-12 2.93D-07.
      3 vectors produced by pass  9 Test12= 8.47D-13 3.33D-08 XBig12= 1.33D-13 5.06D-08.
 InvSVY:  IOpt=1 It=  1 EMax= 5.33D-15
 Solved reduced A of dimension    30 with     3 vectors.
 Calculating GIAO nuclear magnetic shielding tensors.
 SCF GIAO Magnetic shielding tensor (ppm):
      1  C    Isotropic =   125.4132   Anisotropy =   147.8703
   XX=   160.2149   YX=   -14.8292   ZX=    64.4625
   XY=   -14.8091   YY=   100.9021   ZY=   -74.3018
   XZ=    51.8879   YZ=   -62.0915   ZZ=   115.1226
   Eigenvalues:    32.2468   119.9993   223.9934
      2  C    Isotropic =   119.6886   Anisotropy =   160.0471
   XX=   114.4892   YX=   -53.2900   ZX=    80.6829
   XY=   -47.4493   YY=   120.2535   ZY=   -34.3080
   XZ=    70.4910   YZ=   -28.1311   ZZ=   124.3230
   Eigenvalues:    39.6712    93.0079   226.3866
      3  C    Isotropic =   119.7410   Anisotropy =   155.1142
   XX=   132.1085   YX=   -75.9364   ZX=    43.1209
   XY=   -68.6205   YY=    80.2402   ZY=   -39.8800
   XZ=    31.0949   YZ=   -45.8397   ZZ=   146.8742
   Eigenvalues:    27.5056   108.5669   223.1504
      4  C    Isotropic =   133.7224   Anisotropy =   143.7882
   XX=   168.8973   YX=   -21.7579   ZX=    54.6120
   XY=   -28.2044   YY=   116.8030   ZY=   -57.7627
   XZ=    52.5975   YZ=   -63.5460   ZZ=   115.4669
   Eigenvalues:    50.9620   120.6240   229.5812
      5  C    Isotropic =   108.3140   Anisotropy =   129.4366
   XX=   117.5947   YX=   -32.2160   ZX=    61.9661
   XY=   -38.7840   YY=   103.5176   ZY=   -25.3259
   XZ=    73.2617   YZ=    -9.2320   ZZ=   103.8298
   Eigenvalues:    40.4610    89.8760   194.6051
      6  C    Isotropic =   117.0163   Anisotropy =   144.1250
   XX=   146.0464   YX=   -50.4883   ZX=    47.3573
   XY=   -55.4910   YY=    79.5865   ZY=   -29.7520
   XZ=    44.8880   YZ=   -40.5681   ZZ=   125.4160
   Eigenvalues:    48.8607    89.0886   213.0996
      7  N    Isotropic =   272.7211   Anisotropy =    83.0264
   XX=   309.0488   YX=    22.6227   ZX=   -15.0473
   XY=    41.8652   YY=   256.0792   ZY=   -13.8222
   XZ=   -13.1541   YZ=    -5.3072   ZZ=   253.0353
   Eigenvalues:   240.1179   249.9734   328.0720
      8  C    Isotropic =   198.0346   Anisotropy =    11.7687
   XX=   194.2325   YX=    -5.8673   ZX=    -3.0658
   XY=    -4.4236   YY=   197.8099   ZY=     8.5884
   XZ=     0.5091   YZ=    -0.4816   ZZ=   202.0613
   Eigenvalues:   190.4058   197.8175   205.8803
      9  C    Isotropic =   180.0332   Anisotropy =    43.0169
   XX=   173.5139   YX=    18.7096   ZX=   -11.3648
   XY=     6.4889   YY=   181.3425   ZY=    20.8704
   XZ=     1.4829   YZ=    28.2997   ZZ=   185.2432
   Eigenvalues:   151.3261   180.0624   208.7111
     10  C    Isotropic =   189.3585   Anisotropy =    33.1446
   XX=   186.2074   YX=   -15.1781   ZX=    -0.2462
   XY=   -18.1284   YY=   199.9354   ZY=     4.6960
   XZ=     5.6875   YZ=     6.8017   ZZ=   181.9327
   Eigenvalues:   171.9806   184.6401   211.4549
     11  C    Isotropic =   212.7227   Anisotropy =    21.3136
   XX=   212.9981   YX=    -4.2868   ZX=    10.2495
   XY=    -6.5216   YY=   211.2992   ZY=     0.2042
   XZ=    11.0128   YZ=    -8.3282   ZZ=   213.8707
   Eigenvalues:   202.6157   208.6205   226.9317
     12  C    Isotropic =   214.4532   Anisotropy =    19.3356
   XX=   207.2830   YX=    -6.6234   ZX=     2.3861
   XY=    -6.5723   YY=   225.0800   ZY=     1.1343
   XZ=     3.7287   YZ=     3.3156   ZZ=   210.9966
   Eigenvalues:   203.3872   212.6288   227.3436
     13  C    Isotropic =   210.8451   Anisotropy =     8.0803
   XX=   210.5591   YX=     3.0100   ZX=     1.8538
   XY=     1.1130   YY=   208.6702   ZY=     3.2252
   XZ=     4.1161   YZ=     0.6828   ZZ=   213.3060
   Eigenvalues:   207.3468   208.9565   216.2320
     14  N    Isotropic =   299.4772   Anisotropy =    58.2398
   XX=   303.1963   YX=   -26.4869   ZX=    30.3788
   XY=   -27.9734   YY=   317.0860   ZY=    30.1845
   XZ=    28.9748   YZ=    19.5483   ZZ=   278.1492
   Eigenvalues:   241.3431   318.7847   338.3037
     15  C    Isotropic =   202.1516   Anisotropy =    39.6078
   XX=   193.8323   YX=     7.0356   ZX=     5.2318
   XY=     5.6377   YY=   203.1775   ZY=    20.5032
   XZ=     5.2810   YZ=    19.7054   ZZ=   209.4450
   Eigenvalues:   185.6676   192.2304   228.5568
     16  C    Isotropic =   219.3541   Anisotropy =    10.7524
   XX=   225.1810   YX=     0.2281   ZX=     3.7568
   XY=    -1.5146   YY=   220.8903   ZY=     1.6591
   XZ=     4.9090   YZ=     5.8730   ZZ=   211.9910
   Eigenvalues:   209.4378   222.1022   226.5224
     17  C    Isotropic =   213.9180   Anisotropy =    22.9313
   XX=   207.2391   YX=     0.9298   ZX=     6.6996
   XY=    -0.9953   YY=   218.2426   ZY=    12.1492
   XZ=     3.7278   YZ=    10.5130   ZZ=   216.2724
   Eigenvalues:   202.4371   210.1114   229.2056
     18  C    Isotropic =   208.9519   Anisotropy =    32.8267
   XX=   208.2217   YX=   -18.2850   ZX=    10.4667
   XY=   -14.4245   YY=   218.1191   ZY=     4.3291
   XZ=    16.5873   YZ=     6.3421   ZZ=   200.5148
   Eigenvalues:   183.9524   212.0669   230.8363
     19  C    Isotropic =   199.5678   Anisotropy =    43.9917
   XX=   215.4540   YX=    -6.6013   ZX=    22.2843
   XY=     3.0167   YY=   189.0097   ZY=     9.9831
   XZ=    20.0367   YZ=    10.2583   ZZ=   194.2397
   Eigenvalues:   174.6845   195.1233   228.8955
     20  C    Isotropic =   212.2049   Anisotropy =    20.2816
   XX=   205.9986   YX=     8.6157   ZX=    -1.8017
   XY=     6.5410   YY=   205.1184   ZY=     0.3357
   XZ=    -2.2695   YZ=     0.0899   ZZ=   225.4976
   Eigenvalues:   197.8798   213.0088   225.7260
     21  C    Isotropic =   208.1737   Anisotropy =    10.4580
   XX=   208.0910   YX=     5.5935   ZX=     1.7082
   XY=     2.9054   YY=   205.2117   ZY=   -10.4220
   XZ=     1.7066   YZ=    -1.8161   ZZ=   211.2184
   Eigenvalues:   199.1213   210.2541   215.1457
     22  C    Isotropic =    96.9958   Anisotropy =    98.4665
   XX=   148.9569   YX=    -1.6122   ZX=   -36.0460
   XY=    -6.3443   YY=   158.8821   ZY=   -36.0893
   XZ=   -40.6608   YZ=   -13.5818   ZZ=   -16.8517
   Eigenvalues:   -28.6557   157.0030   162.6402
     23  O    Isotropic =  -136.3665   Anisotropy =   889.1197
   XX=   392.9796   YX=   158.3949   ZX=  -155.7738
   XY=   164.3677   YY=  -546.9507   ZY=   -35.1739
   XZ=  -160.9736   YZ=   -23.8535   ZZ=  -255.1284
   Eigenvalues:  -573.9187  -291.5608   456.3800
     24  O    Isotropic =   284.9459   Anisotropy =   138.1310
   XX=   337.9903   YX=    22.9797   ZX=   -51.5139
   XY=    69.8285   YY=   255.8072   ZY=   188.1141
   XZ=   -41.7478   YZ=    48.9715   ZZ=   261.0404
   Eigenvalues:   120.0021   357.8025   377.0332
     25  C    Isotropic =   197.4965   Anisotropy =    56.6247
   XX=   184.4675   YX=    -6.6741   ZX=    14.0957
   XY=    -5.8927   YY=   184.7134   ZY=   -18.0536
   XZ=    13.8785   YZ=   -18.5979   ZZ=   223.3088
   Eigenvalues:   177.2485   179.9948   235.2463
     26  C    Isotropic =   209.8898   Anisotropy =    42.0250
   XX=   206.9714   YX=   -16.2991   ZX=   -12.3144
   XY=   -15.8239   YY=   213.2244   ZY=    13.5770
   XZ=   -14.1276   YZ=    11.2861   ZZ=   209.4736
   Eigenvalues:   192.9634   198.7996   237.9065
     27  C    Isotropic =   206.4982   Anisotropy =    16.2179
   XX=   216.9367   YX=     0.6399   ZX=    -3.2719
   XY=     0.8813   YY=   200.9500   ZY=    -5.7181
   XZ=    -0.6270   YZ=    -4.4388   ZZ=   201.6080
   Eigenvalues:   196.1602   206.0242   217.3102
     28  C    Isotropic =   119.7323   Anisotropy =   158.1188
   XX=    77.0544   YX=    13.0365   ZX=   -65.7151
   XY=     7.0226   YY=    89.8297   ZY=    14.5894
   XZ=   -72.2097   YZ=    14.4128   ZZ=   192.3129
   Eigenvalues:    40.1080    93.9441   225.1449
     29  C    Isotropic =   123.3989   Anisotropy =   155.5148
   XX=    98.5201   YX=   -34.6810   ZX=   -55.8378
   XY=   -42.8506   YY=    68.9065   ZY=    -6.5038
   XZ=   -54.7036   YZ=    -9.0016   ZZ=   202.7700
   Eigenvalues:    32.8282   110.2930   227.0754
     30  C    Isotropic =   119.2910   Anisotropy =   148.7717
   XX=   124.1492   YX=    11.8847   ZX=   -41.9994
   XY=    12.7013   YY=    35.7126   ZY=    23.7585
   XZ=   -41.7346   YZ=    24.0399   ZZ=   198.0111
   Eigenvalues:    28.4650   110.9358   218.4721
     31  C    Isotropic =   133.9263   Anisotropy =   142.0251
   XX=   109.0289   YX=   -37.8486   ZX=   -48.5119
   XY=   -32.7478   YY=    85.7702   ZY=     1.3257
   XZ=   -50.7980   YZ=    -7.4981   ZZ=   206.9798
   Eigenvalues:    52.8912   120.2780   228.6097
     32  C    Isotropic =   109.3251   Anisotropy =   126.0622
   XX=    73.3681   YX=    13.2395   ZX=   -59.9444
   XY=    -1.1028   YY=    90.7775   ZY=    11.0884
   XZ=   -58.3349   YZ=     7.5373   ZZ=   163.8295
   Eigenvalues:    42.2513    92.3573   193.3665
     33  C    Isotropic =   118.9646   Anisotropy =   136.9319
   XX=   111.2251   YX=    -4.7053   ZX=   -41.8049
   XY=     3.2336   YY=    52.6706   ZY=    18.5392
   XZ=   -34.7320   YZ=    20.3165   ZZ=   192.9981
   Eigenvalues:    49.6519    96.9894   210.2526
     34  N    Isotropic =   273.9088   Anisotropy =    81.5195
   XX=   274.1506   YX=   -14.6654   ZX=    27.5277
   XY=   -30.0253   YY=   269.0676   ZY=   -39.3705
   XZ=    21.7780   YZ=   -27.9954   ZZ=   278.5081
   Eigenvalues:   239.7500   253.7212   328.2551
     35  C    Isotropic =   196.7997   Anisotropy =    17.0058
   XX=   202.4400   YX=     5.3246   ZX=    -3.4498
   XY=     9.5835   YY=   197.9701   ZY=     2.5320
   XZ=    -0.0625   YZ=     7.4600   ZZ=   189.9889
   Eigenvalues:   185.9356   196.3266   208.1369
     36  C    Isotropic =   181.6316   Anisotropy =    43.3412
   XX=   182.5752   YX=    22.1218   ZX=     1.6158
   XY=    12.8225   YY=   198.6577   ZY=    -5.7510
   XZ=    14.9664   YZ=   -17.5769   ZZ=   163.6618
   Eigenvalues:   153.3730   180.9961   210.5257
     37  C    Isotropic =   179.4312   Anisotropy =    48.1209
   XX=   169.2538   YX=     4.5096   ZX=     4.1270
   XY=     6.4656   YY=   186.1574   ZY=    29.0520
   XZ=    -2.5906   YZ=    23.8572   ZZ=   182.8824
   Eigenvalues:   157.1424   169.6394   211.5118
     38  C    Isotropic =   213.9882   Anisotropy =    19.1575
   XX=   211.4549   YX=    -2.9121   ZX=   -10.9015
   XY=     3.9139   YY=   209.4969   ZY=     1.0314
   XZ=    -7.7105   YZ=     2.0510   ZZ=   221.0128
   Eigenvalues:   205.3982   209.8066   226.7599
     39  C    Isotropic =   212.4210   Anisotropy =    21.1736
   XX=   205.7640   YX=     5.0831   ZX=    -4.6868
   XY=     2.4919   YY=   220.4991   ZY=    10.3702
   XZ=    -4.2328   YZ=     8.9148   ZZ=   210.9999
   Eigenvalues:   199.5695   211.1569   226.5368
     40  C    Isotropic =   212.0308   Anisotropy =     9.4939
   XX=   211.9958   YX=     4.2836   ZX=     1.5563
   XY=     3.4150   YY=   214.1017   ZY=    -4.3531
   XZ=     2.2132   YZ=    -5.6905   ZZ=   209.9948
   Eigenvalues:   204.6518   213.0805   218.3600
     41  N    Isotropic =   229.7990   Anisotropy =    28.5992
   XX=   241.3923   YX=    13.3733   ZX=     5.6256
   XY=    -5.7526   YY=   216.0312   ZY=     5.3353
   XZ=    11.8290   YZ=    14.5359   ZZ=   231.9735
   Eigenvalues:   211.2601   229.2718   248.8651
     42  C    Isotropic =   191.4421   Anisotropy =    54.1609
   XX=   174.6750   YX=     8.2584   ZX=    -3.2282
   XY=     8.0985   YY=   220.9367   ZY=   -16.0463
   XZ=     5.8548   YZ=   -16.6695   ZZ=   178.7147
   Eigenvalues:   169.5259   177.2512   227.5494
     43  C    Isotropic =   220.9992   Anisotropy =     5.9349
   XX=   219.4594   YX=     4.2048   ZX=     0.5108
   XY=     5.6444   YY=   220.0463   ZY=     1.2539
   XZ=    -1.7413   YZ=     1.5141   ZZ=   223.4918
   Eigenvalues:   214.5992   223.4425   224.9557
     44  C    Isotropic =   214.3468   Anisotropy =    25.5264
   XX=   212.1862   YX=    12.1659   ZX=    -2.1229
   XY=    12.4679   YY=   222.4619   ZY=    -1.8651
   XZ=    -2.5436   YZ=    -4.6272   ZZ=   208.3923
   Eigenvalues:   203.9733   207.7027   231.3644
     45  C    Isotropic =   210.9757   Anisotropy =    37.7297
   XX=   193.5324   YX=    -9.3426   ZX=   -12.3130
   XY=    -1.4511   YY=   220.9494   ZY=    11.6295
   XZ=   -11.2507   YZ=    14.3053   ZZ=   218.4454
   Eigenvalues:   188.8414   207.9570   236.1289
     46  C    Isotropic =   187.8613   Anisotropy =    61.6911
   XX=   204.6614   YX=     4.4756   ZX=   -34.0043
   XY=    15.9139   YY=   175.9863   ZY=     5.9433
   XZ=   -30.7340   YZ=    -2.9266   ZZ=   182.9362
   Eigenvalues:   156.8509   177.7443   228.9886
     47  C    Isotropic =   210.6830   Anisotropy =    25.3566
   XX=   224.8277   YX=     4.1302   ZX=    -5.8282
   XY=     3.6494   YY=   209.1714   ZY=    -6.4109
   XZ=    -5.4440   YZ=    -8.2392   ZZ=   198.0499
   Eigenvalues:   194.0326   210.4289   227.5874
     48  C    Isotropic =   209.0380   Anisotropy =    11.2894
   XX=   212.8364   YX=    -1.8054   ZX=    -3.9167
   XY=    -9.3793   YY=   206.9891   ZY=    -1.9599
   XZ=    -4.7655   YZ=    -6.5906   ZZ=   207.2885
   Eigenvalues:   199.2121   211.3377   216.5643
     49  C    Isotropic =    96.6119   Anisotropy =    98.5664
   XX=    14.9175   YX=   -51.2887   ZX=    58.0342
   XY=   -65.4649   YY=   139.1923   ZY=    26.3409
   XZ=    45.3797   YZ=    13.9896   ZZ=   135.7258
   Eigenvalues:   -27.1179   154.6307   162.3228
     50  O    Isotropic =  -131.4884   Anisotropy =   884.4519
   XX=  -126.2239   YX=  -183.8674   ZX=   247.9080
   XY=  -200.5372   YY=  -263.2250   ZY=  -414.7770
   XZ=   229.6444   YZ=  -409.2137   ZZ=    -5.0162
   Eigenvalues:  -566.4234  -286.1879   458.1462
     51  O    Isotropic =   283.8434   Anisotropy =   139.1656
   XX=   279.8198   YX=     9.9008   ZX=    70.2511
   XY=   118.7442   YY=   332.7618   ZY=  -103.8575
   XZ=   136.1919   YZ=   -22.2128   ZZ=   238.9488
   Eigenvalues:   116.9470   357.9628   376.6205
     52  C    Isotropic =   197.2166   Anisotropy =    58.0424
   XX=   215.6892   YX=    -2.1825   ZX=   -27.3792
   XY=    -2.3373   YY=   177.3816   ZY=     0.9183
   XZ=   -27.3368   YZ=     1.6175   ZZ=   198.5789
   Eigenvalues:   177.1903   178.5480   235.9115
     53  C    Isotropic =   209.9468   Anisotropy =    41.9244
   XX=   212.7984   YX=    12.6723   ZX=    12.5891
   XY=    14.6010   YY=   209.7814   ZY=    15.6254
   XZ=    11.8086   YZ=    16.3541   ZZ=   207.2605
   Eigenvalues:   192.4727   199.4713   237.8964
     54  O    Isotropic =    15.3687   Anisotropy =   489.8950
   XX=   150.2913   YX=   -90.0286   ZX=   228.8272
   XY=  -108.7871   YY=  -130.7345   ZY=   -28.8591
   XZ=   225.6174   YZ=   -13.9831   ZZ=    26.5493
   Eigenvalues:  -190.4660  -105.3933   341.9654
     55  H    Isotropic =    25.6499   Anisotropy =    11.9918
   XX=    29.2729   YX=     5.1963   ZX=    -2.2969
   XY=     4.8354   YY=    26.1838   ZY=    -1.7469
   XZ=    -2.4762   YZ=    -1.3793   ZZ=    21.4929
   Eigenvalues:    20.8107    22.4945    33.6444
     56  H    Isotropic =    26.0339   Anisotropy =     7.1364
   XX=    26.7936   YX=    -0.2908   ZX=    -3.6610
   XY=     0.3796   YY=    26.8412   ZY=     2.0904
   XZ=    -5.0897   YZ=     2.9335   ZZ=    24.4668
   Eigenvalues:    20.4423    26.8678    30.7915
     57  H    Isotropic =    26.6537   Anisotropy =     7.7097
   XX=    27.2634   YX=     4.0055   ZX=    -2.4847
   XY=     3.7818   YY=    28.4402   ZY=     2.5729
   XZ=    -3.6537   YZ=     2.3194   ZZ=    24.2576
   Eigenvalues:    20.1591    28.0085    31.7935
     58  H    Isotropic =    32.0185   Anisotropy =     7.1616
   XX=    31.2340   YX=     3.3748   ZX=    -2.1853
   XY=     2.2992   YY=    30.1894   ZY=    -2.3001
   XZ=    -2.3083   YZ=    -0.4894   ZZ=    34.6319
   Eigenvalues:    27.8033    31.4592    36.7928
     59  H    Isotropic =    32.9386   Anisotropy =     8.7447
   XX=    31.7588   YX=     3.6828   ZX=     1.3158
   XY=     0.1730   YY=    37.2539   ZY=    -3.5719
   XZ=     3.5471   YZ=    -3.4202   ZZ=    29.8031
   Eigenvalues:    26.6645    33.3829    38.7684
     60  H    Isotropic =    32.1123   Anisotropy =    13.7552
   XX=    36.2353   YX=    -5.9438   ZX=    -1.3742
   XY=    -6.9317   YY=    30.9468   ZY=     4.2071
   XZ=     0.0988   YZ=     4.2835   ZZ=    29.1548
   Eigenvalues:    24.3090    30.7455    41.2825
     61  H    Isotropic =    32.2770   Anisotropy =    15.9384
   XX=    41.4303   YX=    -2.3405   ZX=     4.0905
   XY=    -2.8299   YY=    28.1094   ZY=     1.0844
   XZ=     4.2508   YZ=     1.0832   ZZ=    27.2913
   Eigenvalues:    25.0723    28.8561    42.9026
     62  H    Isotropic =    32.6399   Anisotropy =    12.9595
   XX=    27.7010   YX=     0.1084   ZX=     1.6129
   XY=    -1.4544   YY=    31.7429   ZY=    -5.1931
   XZ=     2.2332   YZ=    -4.4259   ZZ=    38.4758
   Eigenvalues:    27.3574    29.2827    41.2796
     63  H    Isotropic =    32.3268   Anisotropy =    10.8716
   XX=    32.1927   YX=     0.9497   ZX=    -4.2434
   XY=     0.9217   YY=    27.7804   ZY=     1.8307
   XZ=    -4.2832   YZ=     1.4642   ZZ=    37.0072
   Eigenvalues:    26.7883    30.6175    39.5745
     64  H    Isotropic =    31.5845   Anisotropy =    13.8244
   XX=    31.4252   YX=    -5.0134   ZX=     1.3322
   XY=    -5.0900   YY=    37.6639   ZY=     2.9211
   XZ=     1.7807   YZ=     3.7261   ZZ=    25.6645
   Eigenvalues:    23.6151    30.3377    40.8008
     65  H    Isotropic =    31.8386   Anisotropy =    12.4601
   XX=    29.5831   YX=     4.4200   ZX=    -2.0926
   XY=     4.4051   YY=    37.0236   ZY=    -3.0662
   XZ=    -1.7557   YZ=    -2.7868   ZZ=    28.9091
   Eigenvalues:    27.1727    28.1977    40.1453
     66  H    Isotropic =    32.3996   Anisotropy =    17.4235
   XX=    28.7687   YX=     1.5751   ZX=     3.2478
   XY=     1.5389   YY=    32.7354   ZY=     8.4915
   XZ=     3.5915   YZ=     9.1405   ZZ=    35.6949
   Eigenvalues:    24.9410    28.2426    44.0153
     67  H    Isotropic =    32.5369   Anisotropy =    12.6480
   XX=    27.2990   YX=    -0.7274   ZX=     2.6637
   XY=    -1.2512   YY=    30.3027   ZY=    -1.8648
   XZ=     3.0760   YZ=    -1.6115   ZZ=    40.0090
   Eigenvalues:    26.5768    30.0651    40.9689
     68  H    Isotropic =    32.2651   Anisotropy =    15.3650
   XX=    40.3498   YX=     3.3710   ZX=     3.5627
   XY=     3.2572   YY=    28.7045   ZY=     3.3080
   XZ=     3.5712   YZ=     3.3282   ZZ=    27.7409
   Eigenvalues:    24.8465    29.4402    42.5084
     69  H    Isotropic =    32.4754   Anisotropy =    10.7451
   XX=    32.4538   YX=    -2.0916   ZX=    -4.1231
   XY=    -1.1787   YY=    28.9783   ZY=    -4.3063
   XZ=    -3.6257   YZ=    -5.4581   ZZ=    35.9942
   Eigenvalues:    24.9771    32.8104    39.6388
     70  H    Isotropic =    33.0922   Anisotropy =    13.1075
   XX=    39.6872   YX=    -1.1097   ZX=     5.9160
   XY=     1.2571   YY=    30.8496   ZY=     2.0871
   XZ=     4.6538   YZ=    -0.8273   ZZ=    28.7400
   Eigenvalues:    26.5332    30.9130    41.8306
     71  H    Isotropic =    31.4760   Anisotropy =    15.2536
   XX=    40.7690   YX=     0.0277   ZX=    -4.3533
   XY=     1.1213   YY=    27.7274   ZY=     0.5898
   XZ=    -2.9759   YZ=    -0.3494   ZZ=    25.9317
   Eigenvalues:    25.0529    27.7301    41.6451
     72  H    Isotropic =    31.7151   Anisotropy =    16.3696
   XX=    35.2428   YX=    -7.6500   ZX=     4.1507
   XY=    -5.8285   YY=    34.0211   ZY=    -1.6832
   XZ=     3.7623   YZ=    -3.0869   ZZ=    25.8815
   Eigenvalues:    24.4322    28.0850    42.6282
     73  H    Isotropic =    32.0037   Anisotropy =    15.5752
   XX=    40.5230   YX=     5.4004   ZX=    -1.0853
   XY=     5.0494   YY=    27.1055   ZY=     1.3711
   XZ=    -1.8093   YZ=     1.0125   ZZ=    28.3825
   Eigenvalues:    24.6224    29.0015    42.3871
     74  H    Isotropic =    30.2706   Anisotropy =     9.7151
   XX=    25.6559   YX=     0.0445   ZX=    -1.6233
   XY=     0.0054   YY=    36.0755   ZY=    -1.7455
   XZ=    -1.6169   YZ=    -2.7156   ZZ=    29.0804
   Eigenvalues:    24.9480    29.1164    36.7473
     75  H    Isotropic =    31.2318   Anisotropy =    12.9386
   XX=    36.1088   YX=    -3.1637   ZX=    -4.7022
   XY=    -1.7686   YY=    27.1084   ZY=     2.6315
   XZ=    -5.1375   YZ=     2.2999   ZZ=    30.4784
   Eigenvalues:    25.8044    28.0336    39.8576
     76  H    Isotropic =    30.6323   Anisotropy =     7.9437
   XX=    33.8852   YX=    -3.3891   ZX=     1.6804
   XY=    -3.6893   YY=    27.0338   ZY=    -1.8049
   XZ=     0.2382   YZ=    -1.9229   ZZ=    30.9779
   Eigenvalues:    25.2075    30.7613    35.9281
     77  H    Isotropic =    30.5616   Anisotropy =    11.4552
   XX=    25.7911   YX=     0.5732   ZX=     0.8623
   XY=     0.4506   YY=    29.3378   ZY=     3.4529
   XZ=     0.1353   YZ=     4.0799   ZZ=    36.5560
   Eigenvalues:    25.7185    27.7679    38.1984
     78  H    Isotropic =    30.5159   Anisotropy =    12.0621
   XX=    28.6939   YX=     3.2369   ZX=    -3.4978
   XY=     3.8382   YY=    30.0833   ZY=    -4.6860
   XZ=    -3.5029   YZ=    -4.2479   ZZ=    32.7705
   Eigenvalues:    25.7763    27.2141    38.5573
     79  H    Isotropic =    31.8725   Anisotropy =    12.1699
   XX=    30.2166   YX=    -4.9925   ZX=    -0.5283
   XY=    -5.7252   YY=    37.0458   ZY=     0.4551
   XZ=     0.9657   YZ=    -0.3563   ZZ=    28.3552
   Eigenvalues:    27.2355    28.3964    39.9858
     80  H    Isotropic =    30.7218   Anisotropy =    14.0487
   XX=    27.0862   YX=     2.0161   ZX=     0.2027
   XY=     1.7481   YY=    30.5830   ZY=     7.3537
   XZ=     0.4509   YZ=     6.9107   ZZ=    34.4961
   Eigenvalues:    24.4674    27.6104    40.0876
     81  H    Isotropic =    30.8643   Anisotropy =    11.0223
   XX=    32.4716   YX=     0.8411   ZX=    -6.9060
   XY=     0.2768   YY=    29.9252   ZY=     2.1437
   XZ=    -6.5417   YZ=     1.3232   ZZ=    30.1961
   Eigenvalues:    24.0302    30.3503    38.2125
     82  H    Isotropic =    29.9389   Anisotropy =    12.4000
   XX=    27.7616   YX=     0.1997   ZX=     0.2814
   XY=     1.5770   YY=    36.9840   ZY=    -3.5500
   XZ=    -1.0465   YZ=    -4.1399   ZZ=    25.0710
   Eigenvalues:    23.9342    27.6769    38.2055
     83  H    Isotropic =    30.0100   Anisotropy =     8.2598
   XX=    27.1599   YX=     1.4468   ZX=     0.6899
   XY=     2.0539   YY=    28.1361   ZY=     1.1712
   XZ=     2.4634   YZ=     1.8574   ZZ=    34.7340
   Eigenvalues:    25.8157    28.6977    35.5165
     84  H    Isotropic =    25.3874   Anisotropy =    15.1666
   XX=    31.1423   YX=    -4.8472   ZX=     1.8042
   XY=    -5.0803   YY=    27.2837   ZY=    -1.9920
   XZ=     4.6086   YZ=    -3.2560   ZZ=    17.7362
   Eigenvalues:    16.7601    23.9037    35.4984
     85  H    Isotropic =    25.6732   Anisotropy =     6.5322
   XX=    28.5845   YX=     2.0638   ZX=     2.1651
   XY=     1.2723   YY=    27.1826   ZY=    -0.6505
   XZ=     2.5249   YZ=    -0.4992   ZZ=    21.2525
   Eigenvalues:    20.4076    26.5840    30.0280
     86  H    Isotropic =    26.6055   Anisotropy =     7.8219
   XX=    27.3761   YX=    -0.3335   ZX=     3.0713
   XY=    -0.4221   YY=    30.8250   ZY=    -2.4096
   XZ=     2.8742   YZ=    -2.7107   ZZ=    21.6155
   Eigenvalues:    19.9007    28.0957    31.8201
     87  H    Isotropic =    31.0373   Anisotropy =    12.7933
   XX=    38.6199   YX=    -1.8735   ZX=     1.4710
   XY=    -4.0081   YY=    29.4787   ZY=    -0.3204
   XZ=     0.1721   YZ=    -1.8159   ZZ=    25.0133
   Eigenvalues:    24.7690    28.7767    39.5661
     88  H    Isotropic =    32.3440   Anisotropy =    13.5001
   XX=    29.5146   YX=     5.3187   ZX=     2.7099
   XY=     4.5838   YY=    30.3963   ZY=     4.0634
   XZ=     4.5177   YZ=     3.4342   ZZ=    37.1211
   Eigenvalues:    24.9827    30.7053    41.3441
     89  H    Isotropic =    33.2989   Anisotropy =     8.9253
   XX=    32.5916   YX=    -4.2636   ZX=    -3.5164
   XY=    -5.1726   YY=    35.7293   ZY=     1.1086
   XZ=    -0.3600   YZ=    -1.6174   ZZ=    31.5760
   Eigenvalues:    28.2705    32.3772    39.2491
     90  H    Isotropic =    32.3478   Anisotropy =    14.5756
   XX=    27.0368   YX=     1.1506   ZX=     1.9262
   XY=     0.9235   YY=    28.4609   ZY=    -1.8017
   XZ=     1.9486   YZ=    -2.2847   ZZ=    41.5457
   Eigenvalues:    26.0246    28.9539    42.0649
     91  H    Isotropic =    32.7695   Anisotropy =    13.0931
   XX=    38.8381   YX=    -1.5783   ZX=    -5.0533
   XY=    -2.2563   YY=    29.2698   ZY=     2.0414
   XZ=    -4.8420   YZ=     0.3604   ZZ=    30.2005
   Eigenvalues:    27.8641    28.9462    41.4982
     92  H    Isotropic =    30.5836   Anisotropy =    12.9754
   XX=    28.1440   YX=     3.1007   ZX=     2.8185
   XY=     4.8539   YY=    33.1461   ZY=     5.9515
   XZ=     2.1382   YZ=     4.6503   ZZ=    30.4608
   Eigenvalues:    25.8035    26.7135    39.2339
     93  H    Isotropic =    31.9571   Anisotropy =     9.6985
   XX=    32.7826   YX=    -3.6537   ZX=    -1.6329
   XY=    -3.9631   YY=    35.6975   ZY=     0.9125
   XZ=    -0.4537   YZ=     0.2608   ZZ=    27.3913
   Eigenvalues:    27.1940    30.2546    38.4228
     94  H    Isotropic =    32.2730   Anisotropy =    16.7586
   XX=    29.0488   YX=     5.0708   ZX=    -0.4706
   XY=     6.3988   YY=    40.1929   ZY=    -3.6487
   XZ=    -0.9085   YZ=    -3.6325   ZZ=    27.5774
   Eigenvalues:    25.9216    27.4520    43.4454
     95  H    Isotropic =    31.8921   Anisotropy =    16.7106
   XX=    42.3830   YX=    -3.1276   ZX=     1.4762
   XY=    -2.5776   YY=    27.9580   ZY=    -0.8787
   XZ=     0.7716   YZ=    -1.9117   ZZ=    25.3352
   Eigenvalues:    24.7312    27.9126    43.0325
     96  H    Isotropic =    32.5244   Anisotropy =    13.7441
   XX=    31.5140   YX=    -2.1627   ZX=     3.9873
   XY=    -1.8609   YY=    36.2143   ZY=    -6.6221
   XZ=     3.5031   YZ=    -6.4708   ZZ=    29.8449
   Eigenvalues:    24.9645    30.9215    41.6871
     97  H    Isotropic =    32.3806   Anisotropy =    12.5829
   XX=    31.9156   YX=     2.2105   ZX=    -5.9226
   XY=     2.6018   YY=    28.7570   ZY=     0.0267
   XZ=    -5.9353   YZ=    -0.6735   ZZ=    36.4692
   Eigenvalues:    26.3691    30.0035    40.7692
     98  H    Isotropic =    31.8420   Anisotropy =    10.6822
   XX=    26.7426   YX=    -3.0573   ZX=     1.5314
   XY=    -2.4687   YY=    31.3529   ZY=    -4.1772
   XZ=     2.4028   YZ=    -0.7633   ZZ=    37.4305
   Eigenvalues:    25.3991    31.1634    38.9634
     99  H    Isotropic =    32.8022   Anisotropy =    11.8679
   XX=    39.3587   YX=     1.7657   ZX=    -3.5019
   XY=     1.2418   YY=    27.6012   ZY=     0.0965
   XZ=    -3.2798   YZ=     1.4346   ZZ=    31.4466
   Eigenvalues:    27.0203    30.6721    40.7141
    100  H    Isotropic =    30.7000   Anisotropy =    13.8250
   XX=    26.4036   YX=     0.3442   ZX=    -3.1869
   XY=     0.4258   YY=    28.6425   ZY=     5.2340
   XZ=    -0.0372   YZ=     5.8268   ZZ=    37.0538
   Eigenvalues:    25.0180    27.1653    39.9167
    101  H    Isotropic =    31.5178   Anisotropy =     9.9881
   XX=    35.0233   YX=    -4.4325   ZX=    -1.5293
   XY=    -3.9895   YY=    31.5311   ZY=     0.8882
   XZ=    -0.8220   YZ=     2.2808   ZZ=    27.9989
   Eigenvalues:    27.3477    29.0292    38.1765
    102  H    Isotropic =    31.8384   Anisotropy =     9.6450
   XX=    32.2245   YX=    -3.7530   ZX=    -0.7213
   XY=    -2.3452   YY=    34.8942   ZY=     3.7919
   XZ=    -1.2830   YZ=     3.6396   ZZ=    28.3966
   Eigenvalues:    26.6828    30.5640    38.2684
    103  H    Isotropic =    32.1698   Anisotropy =    14.7119
   XX=    31.5935   YX=    -1.9445   ZX=     5.4130
   XY=    -1.3883   YY=    30.8827   ZY=    -6.8357
   XZ=     4.9137   YZ=    -6.7679   ZZ=    34.0332
   Eigenvalues:    24.7589    29.7728    41.9778
    104  H    Isotropic =    31.2082   Anisotropy =    12.7879
   XX=    33.9050   YX=     2.5045   ZX=     5.9491
   XY=     2.3142   YY=    27.0064   ZY=    -0.0713
   XZ=     6.0350   YZ=     1.4705   ZZ=    32.7132
   Eigenvalues:    25.8121    28.0790    39.7335
    105  H    Isotropic =    30.5136   Anisotropy =    12.3253
   XX=    35.3276   YX=     5.4684   ZX=    -0.9955
   XY=     4.8810   YY=    30.6283   ZY=     0.4794
   XZ=    -1.6625   YZ=     0.1318   ZZ=    25.5850
   Eigenvalues:    25.0864    27.7240    38.7305
    106  H    Isotropic =    30.6361   Anisotropy =     7.7075
   XX=    30.9592   YX=     0.0531   ZX=    -1.1274
   XY=     0.2848   YY=    25.7399   ZY=    -0.4004
   XZ=    -2.0450   YZ=    -0.7974   ZZ=    35.2091
   Eigenvalues:    25.7012    30.4326    35.7744
    107  H    Isotropic =    30.5804   Anisotropy =    11.7335
   XX=    35.0449   YX=    -4.5274   ZX=    -0.8129
   XY=    -5.3433   YY=    31.0512   ZY=    -0.4092
   XZ=    -0.9412   YZ=     0.0400   ZZ=    25.6450
   Eigenvalues:    25.4341    27.9042    38.4027
    108  H    Isotropic =    30.9858   Anisotropy =    11.1301
   XX=    34.7574   YX=    -0.1423   ZX=     5.6763
   XY=     0.3474   YY=    30.6160   ZY=     0.7726
   XZ=     6.8553   YZ=     0.2550   ZZ=    27.5839
   Eigenvalues:    23.9278    30.6237    38.4059
    109  H    Isotropic =    30.7572   Anisotropy =    14.8029
   XX=    32.3312   YX=     6.6227   ZX=    -0.8196
   XY=     6.6191   YY=    34.8276   ZY=    -2.4280
   XZ=     0.0286   YZ=    -2.5803   ZZ=    25.1126
   Eigenvalues:    24.1873    27.4584    40.6258
    110  H    Isotropic =    31.9680   Anisotropy =    11.2810
   XX=    29.1960   YX=     0.5180   ZX=    -1.4771
   XY=     0.4130   YY=    33.9637   ZY=     6.1400
   XZ=     0.7606   YZ=     6.0664   ZZ=    32.7442
   Eigenvalues:    27.0637    29.3516    39.4886
 End of Minotr F.D. properties file   721 does not exist.
 End of Minotr F.D. properties file   722 does not exist.
 End of Minotr F.D. properties file   788 does not exist.
 Hyperfine terms turned off by default for NAtoms > 100.

 **********************************************************************

            Population analysis using the SCF Density.

 **********************************************************************

 Orbital symmetries:
       Occupied  (A) (A) (A) (A) (A) (A) (A) (A) (A) (A) (A) (A)
                 (A) (A) (A) (A) (A) (A) (A) (A) (A) (A) (A) (A)
                 (A) (A) (A) (A) (A) (A) (A) (A) (A) (A) (A) (A)
                 (A) (A) (A) (A) (A) (A) (A) (A) (A) (A) (A) (A)
                 (A) (A) (A) (A) (A) (A) (A) (A) (A) (A) (A) (A)
                 (A) (A) (A) (A) (A) (A) (A) (A) (A) (A) (A) (A)
                 (A) (A) (A) (A) (A) (A) (A) (A) (A) (A) (A) (A)
                 (A) (A) (A) (A) (A) (A) (A) (A) (A) (A) (A) (A)
                 (A) (A) (A) (A) (A) (A) (A) (A) (A) (A) (A) (A)
                 (A) (A) (A) (A) (A) (A) (A) (A) (A) (A) (A) (A)
                 (A) (A) (A) (A) (A) (A) (A) (A) (A) (A) (A) (A)
                 (A) (A) (A) (A) (A) (A) (A) (A) (A) (A) (A) (A)
                 (A) (A) (A) (A) (A) (A) (A) (A) (A) (A) (A) (A)
                 (A) (A) (A) (A) (A) (A) (A) (A) (A) (A) (A) (A)
                 (A) (A) (A) (A) (A) (A) (A) (A) (A) (A) (A) (A)
                 (A) (A) (A) (A) (A) (A) (A) (A) (A) (A) (A) (A)
                 (A) (A) (A) (A) (A)
       Virtual   (A) (A) (A) (A) (A) (A) (A) (A) (A) (A) (A) (A)
                 (A) (A) (A) (A) (A) (A) (A) (A) (A) (A) (A) (A)
                 (A) (A) (A) (A) (A) (A) (A) (A) (A) (A) (A) (A)
                 (A) (A) (A) (A) (A) (A) (A) (A) (A) (A) (A) (A)
                 (A) (A) (A) (A) (A) (A) (A) (A) (A) (A) (A) (A)
                 (A) (A) (A) (A) (A) (A) (A) (A) (A) (A) (A) (A)
                 (A) (A) (A) (A) (A) (A) (A) (A) (A) (A) (A) (A)
                 (A) (A) (A) (A) (A) (A) (A) (A) (A) (A) (A) (A)
                 (A) (A) (A) (A) (A) (A) (A) (A) (A) (A) (A) (A)
                 (A) (A) (A) (A) (A) (A) (A) (A) (A) (A) (A) (A)
                 (A) (A) (A) (A) (A) (A) (A) (A) (A)
 The electronic state is 1-A.
 Alpha  occ. eigenvalues --  -20.31360 -20.29604 -20.25292 -20.23598 -19.91620
 Alpha  occ. eigenvalues --  -15.47831 -15.33906 -15.32758 -15.28832 -11.17311
 Alpha  occ. eigenvalues --  -11.15444 -11.11064 -11.10212 -11.09861 -11.09029
 Alpha  occ. eigenvalues --  -11.08981 -11.08488 -11.08258 -11.08189 -11.07290
 Alpha  occ. eigenvalues --  -11.07258 -11.07208 -11.06929 -11.05778 -11.05725
 Alpha  occ. eigenvalues --  -11.05646 -11.05634 -11.05511 -11.05427 -11.05213
 Alpha  occ. eigenvalues --  -11.05091 -11.04940 -11.04839 -11.04776 -11.04647
 Alpha  occ. eigenvalues --  -11.04489 -11.04314 -11.03863 -11.03026 -11.02959
 Alpha  occ. eigenvalues --  -11.02949 -11.02902 -11.02805 -11.02563 -11.01807
 Alpha  occ. eigenvalues --  -11.01571 -11.01512 -11.01429 -11.01315 -11.01249
 Alpha  occ. eigenvalues --  -11.01101 -11.01083 -11.00854 -11.00761  -1.38579
 Alpha  occ. eigenvalues --   -1.36877  -1.28451  -1.28007  -1.26541  -1.21354
 Alpha  occ. eigenvalues --   -1.20631  -1.18175  -1.11737  -1.08735  -1.08169
 Alpha  occ. eigenvalues --   -1.07021  -1.06119  -1.03866  -1.03254  -1.00496
 Alpha  occ. eigenvalues --   -0.99772  -0.98732  -0.97912  -0.97235  -0.96725
 Alpha  occ. eigenvalues --   -0.95527  -0.94628  -0.93579  -0.93061  -0.92524
 Alpha  occ. eigenvalues --   -0.92090  -0.90988  -0.90631  -0.89225  -0.87593
 Alpha  occ. eigenvalues --   -0.86078  -0.84305  -0.82760  -0.82268  -0.80950
 Alpha  occ. eigenvalues --   -0.80591  -0.78661  -0.78301  -0.77710  -0.76156
 Alpha  occ. eigenvalues --   -0.75688  -0.74454  -0.73137  -0.72932  -0.72243
 Alpha  occ. eigenvalues --   -0.71539  -0.69690  -0.69342  -0.68649  -0.66831
 Alpha  occ. eigenvalues --   -0.65456  -0.64940  -0.64478  -0.63676  -0.62648
 Alpha  occ. eigenvalues --   -0.62445  -0.61958  -0.61346  -0.61205  -0.60917
 Alpha  occ. eigenvalues --   -0.60301  -0.59417  -0.59099  -0.58984  -0.58849
 Alpha  occ. eigenvalues --   -0.58319  -0.57830  -0.57334  -0.57061  -0.56955
 Alpha  occ. eigenvalues --   -0.56709  -0.56487  -0.56251  -0.55827  -0.55622
 Alpha  occ. eigenvalues --   -0.55250  -0.55151  -0.54740  -0.54187  -0.54045
 Alpha  occ. eigenvalues --   -0.53445  -0.52906  -0.52725  -0.52439  -0.52200
 Alpha  occ. eigenvalues --   -0.51669  -0.51260  -0.50945  -0.50773  -0.50325
 Alpha  occ. eigenvalues --   -0.49589  -0.49318  -0.49046  -0.48958  -0.48539
 Alpha  occ. eigenvalues --   -0.48198  -0.47937  -0.47625  -0.47344  -0.47162
 Alpha  occ. eigenvalues --   -0.46176  -0.45849  -0.45748  -0.45560  -0.45267
 Alpha  occ. eigenvalues --   -0.44732  -0.44592  -0.44453  -0.44186  -0.43703
 Alpha  occ. eigenvalues --   -0.43307  -0.43041  -0.42889  -0.42380  -0.42222
 Alpha  occ. eigenvalues --   -0.41553  -0.41442  -0.41240  -0.40775  -0.40277
 Alpha  occ. eigenvalues --   -0.40153  -0.39696  -0.38984  -0.38898  -0.37619
 Alpha  occ. eigenvalues --   -0.36819  -0.36381  -0.35526  -0.34955  -0.34650
 Alpha  occ. eigenvalues --   -0.33955  -0.33234  -0.32391  -0.32270  -0.31043
 Alpha  occ. eigenvalues --   -0.26667  -0.26246  -0.26135  -0.21284  -0.19904
 Alpha  occ. eigenvalues --   -0.15384  -0.15297
 Alpha virt. eigenvalues --    0.27059   0.27690   0.27976   0.29609   0.29731
 Alpha virt. eigenvalues --    0.31612   0.46180   0.47224   0.48873   0.49233
 Alpha virt. eigenvalues --    0.49945   0.50418   0.50509   0.51552   0.52720
 Alpha virt. eigenvalues --    0.53059   0.54375   0.54885   0.55811   0.56622
 Alpha virt. eigenvalues --    0.57026   0.58135   0.58409   0.58840   0.59181
 Alpha virt. eigenvalues --    0.59318   0.59640   0.59899   0.60458   0.61083
 Alpha virt. eigenvalues --    0.61688   0.62042   0.62317   0.62757   0.62943
 Alpha virt. eigenvalues --    0.63274   0.63872   0.63988   0.64409   0.64529
 Alpha virt. eigenvalues --    0.64796   0.65152   0.65610   0.65937   0.66119
 Alpha virt. eigenvalues --    0.66376   0.66789   0.66822   0.66935   0.67500
 Alpha virt. eigenvalues --    0.67778   0.68090   0.68451   0.68732   0.68894
 Alpha virt. eigenvalues --    0.69072   0.69566   0.69666   0.69735   0.70075
 Alpha virt. eigenvalues --    0.70282   0.70778   0.70823   0.71079   0.71632
 Alpha virt. eigenvalues --    0.71681   0.71897   0.72307   0.72849   0.72935
 Alpha virt. eigenvalues --    0.73065   0.73310   0.73458   0.73546   0.73779
 Alpha virt. eigenvalues --    0.74665   0.74689   0.74921   0.75193   0.75429
 Alpha virt. eigenvalues --    0.75574   0.75776   0.76019   0.76049   0.76214
 Alpha virt. eigenvalues --    0.76681   0.77201   0.77546   0.77691   0.77987
 Alpha virt. eigenvalues --    0.78167   0.78273   0.78507   0.79257   0.79508
 Alpha virt. eigenvalues --    0.79809   0.80187   0.80273   0.80476   0.80936
 Alpha virt. eigenvalues --    0.81324   0.81403   0.81964   0.82048   0.82570
 Alpha virt. eigenvalues --    0.82956   0.83943   0.84061   0.85391   0.85458
 Alpha virt. eigenvalues --    0.85954   0.86621   0.86760   0.87163   0.88391
 Alpha virt. eigenvalues --    0.88501   0.90155   0.91182   0.92174   0.94496
 Alpha virt. eigenvalues --    0.94811   0.96188   0.98568   1.00751   1.02293
 Alpha virt. eigenvalues --    1.11101   1.11981   1.16244   1.16752
          Condensed to atoms (all electrons):
 Mulliken charges:
               1
     1  C   -0.076246
     2  C    0.000871
     3  C   -0.064090
     4  C   -0.090736
     5  C    0.089067
     6  C   -0.013464
     7  N   -0.283545
     8  C    0.015413
     9  C    0.129541
    10  C    0.039984
    11  C   -0.114629
    12  C   -0.107947
    13  C    0.041719
    14  N   -0.293546
    15  C   -0.011989
    16  C   -0.095785
    17  C   -0.100305
    18  C   -0.099071
    19  C   -0.016028
    20  C   -0.104030
    21  C   -0.063718
    22  C    0.318301
    23  O   -0.274485
    24  O   -0.256073
    25  C   -0.055195
    26  C   -0.078313
    27  C   -0.109509
    28  C    0.001964
    29  C   -0.073156
    30  C   -0.061465
    31  C   -0.090665
    32  C    0.086377
    33  C   -0.011999
    34  N   -0.286101
    35  C    0.017319
    36  C    0.128063
    37  C    0.039831
    38  C   -0.116639
    39  C   -0.103649
    40  C    0.027452
    41  N   -0.080444
    42  C   -0.008938
    43  C   -0.103747
    44  C   -0.104451
    45  C   -0.106409
    46  C   -0.015780
    47  C   -0.108842
    48  C   -0.068086
    49  C    0.320050
    50  O   -0.279115
    51  O   -0.254503
    52  C   -0.055725
    53  C   -0.080225
    54  O   -0.456781
    55  H    0.062689
    56  H    0.054541
    57  H    0.057380
    58  H    0.043109
    59  H    0.053220
    60  H    0.048201
    61  H    0.047307
    62  H    0.048893
    63  H    0.041178
    64  H    0.061738
    65  H    0.054390
    66  H    0.048482
    67  H    0.046388
    68  H    0.049803
    69  H    0.061208
    70  H    0.054547
    71  H    0.060110
    72  H    0.060954
    73  H    0.046978
    74  H    0.080088
    75  H    0.062052
    76  H    0.072859
    77  H    0.075368
    78  H    0.071011
    79  H    0.054145
    80  H    0.070228
    81  H    0.075387
    82  H    0.056386
    83  H    0.060729
    84  H    0.083803
    85  H    0.055757
    86  H    0.057759
    87  H    0.089581
    88  H    0.052268
    89  H    0.059732
    90  H    0.052027
    91  H    0.055219
    92  H    0.092537
    93  H    0.059626
    94  H    0.065016
    95  H    0.074219
    96  H    0.053027
    97  H    0.058633
    98  H    0.079905
    99  H    0.070347
   100  H    0.089431
   101  H    0.072601
   102  H    0.062517
   103  H    0.055492
   104  H    0.067592
   105  H    0.079002
   106  H    0.075649
   107  H    0.073280
   108  H    0.075779
   109  H    0.073029
   110  H    0.056277
 Sum of Mulliken charges =  -0.00000
 Mulliken charges with hydrogens summed into heavy atoms:
               1
     1  C   -0.013557
     2  C    0.000871
     3  C   -0.009549
     4  C   -0.033356
     5  C    0.089067
     6  C   -0.013464
     7  N   -0.283545
     8  C    0.015413
     9  C    0.129541
    10  C    0.083093
    11  C   -0.013208
    12  C   -0.011747
    13  C    0.041719
    14  N   -0.293546
    15  C    0.090926
    16  C    0.007088
    17  C   -0.004113
    18  C    0.016684
    19  C    0.105036
    20  C    0.023036
    21  C   -0.001666
    22  C    0.318301
    23  O   -0.274485
    24  O   -0.256073
    25  C    0.164043
    26  C    0.121447
    27  C    0.007605
    28  C    0.001964
    29  C    0.010647
    30  C   -0.005708
    31  C   -0.032906
    32  C    0.086377
    33  C   -0.011999
    34  N   -0.286101
    35  C    0.017319
    36  C    0.128063
    37  C    0.129412
    38  C   -0.004639
    39  C    0.003597
    40  C    0.027452
    41  N   -0.080444
    42  C    0.143225
    43  C    0.035487
    44  C    0.007208
    45  C    0.043843
    46  C    0.146251
    47  C    0.009167
    48  C   -0.000494
    49  C    0.320050
    50  O   -0.279115
    51  O   -0.254503
    52  C    0.172206
    53  C    0.124860
    54  O   -0.456781
 Electronic spatial extent (au):  <R**2>=          37851.6427
 Charge=             -0.0000 electrons
 Dipole moment (field-independent basis, Debye):
    X=              3.0854    Y=              0.8463    Z=              3.1504  Tot=              4.4901
 Quadrupole moment (field-independent basis, Debye-Ang):
   XX=           -271.2760   YY=           -299.3079   ZZ=           -295.1137
   XY=             -9.1973   XZ=              8.4994   YZ=             -1.9182
 Traceless Quadrupole moment (field-independent basis, Debye-Ang):
   XX=             17.2899   YY=            -10.7420   ZZ=             -6.5478
   XY=             -9.1973   XZ=              8.4994   YZ=             -1.9182
 Octapole moment (field-independent basis, Debye-Ang**2):
  XXX=            139.1435  YYY=            -25.1924  ZZZ=             58.5909  XYY=             48.7150
  XXY=             39.3206  XXZ=             31.6072  XZZ=             -1.5919  YZZ=            -10.9753
  YYZ=             14.0772  XYZ=            -23.2535
 Hexadecapole moment (field-independent basis, Debye-Ang**3):
 XXXX=         -31737.2367 YYYY=          -8258.8967 ZZZZ=          -4987.5410 XXXY=            -15.1505
 XXXZ=           -256.3323 YYYX=            -80.3967 YYYZ=             71.6217 ZZZX=           -299.4666
 ZZZY=              0.4090 XXYY=          -7177.2941 XXZZ=          -6354.8149 YYZZ=          -2301.0787
 XXYZ=             30.2941 YYXZ=             13.1254 ZZXY=             -1.7327
 N-N= 8.125181748481D+03 E-N=-2.162770157780D+04  KE= 2.279176218377D+03
 ******************************Gaussian NBO Version 3.1******************************
             N A T U R A L   A T O M I C   O R B I T A L   A N D
          N A T U R A L   B O N D   O R B I T A L   A N A L Y S I S
 ******************************Gaussian NBO Version 3.1******************************
       /RESON  / : Allow strongly delocalized NBO set
       /NLMO   / : Form Natural Localized Molecular Orbitals
       /NMR /    : Analyze NMR Sheilding Tensor 

 Analyzing the SCF density

 Job title: pleiokomenine_C_1a                                              

 Storage needed:    355564 in NPA,    438187 in NBO,   2133784 in NLMO ( 104796000 available)
 GSVD:  LWork=     -108884 too small for GESVD, short by      536270 words or      536270 for optimal perf.


 NATURAL POPULATIONS:  Natural atomic orbital occupancies 
                                                          
   NAO  Atom  No  lang   Type(AO)    Occupancy      Energy
 ----------------------------------------------------------
     1    C    1  S      Cor( 1S)     1.99992     -10.93607
     2    C    1  S      Val( 2S)     1.07959      -0.16813
     3    C    1  px     Val( 2p)     0.99182       0.10028
     4    C    1  py     Val( 2p)     0.98642       0.13668
     5    C    1  pz     Val( 2p)     1.00148       0.10978
 
     6    C    2  S      Cor( 1S)     1.99990     -10.94721
     7    C    2  S      Val( 2S)     1.07839      -0.17492
     8    C    2  px     Val( 2p)     0.95945       0.11942
     9    C    2  py     Val( 2p)     0.97320       0.15011
    10    C    2  pz     Val( 2p)     0.97377       0.12417
 
    11    C    3  S      Cor( 1S)     1.99994     -10.93893
    12    C    3  S      Val( 2S)     1.08293      -0.17364
    13    C    3  px     Val( 2p)     0.98685       0.10431
    14    C    3  py     Val( 2p)     0.98709       0.13102
    15    C    3  pz     Val( 2p)     0.97952       0.12146
 
    16    C    4  S      Cor( 1S)     1.99993     -10.93292
    17    C    4  S      Val( 2S)     1.07158      -0.16511
    18    C    4  px     Val( 2p)     1.01621       0.09176
    19    C    4  py     Val( 2p)     0.99260       0.13390
    20    C    4  pz     Val( 2p)     1.00756       0.11081
 
    21    C    5  S      Cor( 1S)     1.99985     -10.97923
    22    C    5  S      Val( 2S)     1.06144      -0.17770
    23    C    5  px     Val( 2p)     0.92745       0.11149
    24    C    5  py     Val( 2p)     0.96853       0.14166
    25    C    5  pz     Val( 2p)     0.93014       0.11581
 
    26    C    6  S      Cor( 1S)     1.99990     -10.93851
    27    C    6  S      Val( 2S)     1.08549      -0.18114
    28    C    6  px     Val( 2p)     0.99652       0.10420
    29    C    6  py     Val( 2p)     0.95638       0.13908
    30    C    6  pz     Val( 2p)     0.98408       0.12541
 
    31    N    7  S      Cor( 1S)     1.99998     -15.26032
    32    N    7  S      Val( 2S)     1.40710      -0.58607
    33    N    7  px     Val( 2p)     1.19392      -0.02468
    34    N    7  py     Val( 2p)     1.25037      -0.04690
    35    N    7  pz     Val( 2p)     1.42109      -0.10767
 
    36    C    8  S      Cor( 1S)     1.99996     -10.99501
    37    C    8  S      Val( 2S)     1.10735      -0.22027
    38    C    8  px     Val( 2p)     0.94304       0.11523
    39    C    8  py     Val( 2p)     0.95982       0.12369
    40    C    8  pz     Val( 2p)     0.97408       0.08837
 
    41    C    9  S      Cor( 1S)     1.99996     -11.04068
    42    C    9  S      Val( 2S)     1.11284      -0.24696
    43    C    9  px     Val( 2p)     0.93308       0.10611
    44    C    9  py     Val( 2p)     0.88995       0.11466
    45    C    9  pz     Val( 2p)     0.89091       0.10443
 
    46    C   10  S      Cor( 1S)     1.99994     -11.00175
    47    C   10  S      Val( 2S)     1.09267      -0.20228
    48    C   10  px     Val( 2p)     0.96883       0.09354
    49    C   10  py     Val( 2p)     0.88381       0.12656
    50    C   10  pz     Val( 2p)     0.98311       0.10384
 
    51    C   11  S      Cor( 1S)     1.99994     -10.97062
    52    C   11  S      Val( 2S)     1.10426      -0.20552
    53    C   11  px     Val( 2p)     1.00406       0.08952
    54    C   11  py     Val( 2p)     0.99192       0.09660
    55    C   11  pz     Val( 2p)     0.98406       0.09479
 
    56    C   12  S      Cor( 1S)     1.99996     -10.96711
    57    C   12  S      Val( 2S)     1.08844      -0.18721
    58    C   12  px     Val( 2p)     1.00923       0.09797
    59    C   12  py     Val( 2p)     0.98603       0.09653
    60    C   12  pz     Val( 2p)     0.99456       0.09999
 
    61    C   13  S      Cor( 1S)     1.99998     -10.99350
    62    C   13  S      Val( 2S)     1.10022      -0.21058
    63    C   13  px     Val( 2p)     0.94914       0.11808
    64    C   13  py     Val( 2p)     0.94372       0.12342
    65    C   13  pz     Val( 2p)     0.94351       0.12167
 
    66    N   14  S      Cor( 1S)     1.99999     -15.21896
    67    N   14  S      Val( 2S)     1.42097      -0.56547
    68    N   14  px     Val( 2p)     1.28032      -0.03285
    69    N   14  py     Val( 2p)     1.18080       0.00728
    70    N   14  pz     Val( 2p)     1.40103      -0.07659
 
    71    C   15  S      Cor( 1S)     1.99994     -10.99573
    72    C   15  S      Val( 2S)     1.06993      -0.17645
    73    C   15  px     Val( 2p)     0.98649       0.09248
    74    C   15  py     Val( 2p)     0.98060       0.10069
    75    C   15  pz     Val( 2p)     0.92068       0.12675
 
    76    C   16  S      Cor( 1S)     1.99996     -10.96738
    77    C   16  S      Val( 2S)     1.08446      -0.18099
    78    C   16  px     Val( 2p)     0.97052       0.10949
    79    C   16  py     Val( 2p)     0.98672       0.10462
    80    C   16  pz     Val( 2p)     1.01707       0.10384
 
    81    C   17  S      Cor( 1S)     1.99995     -10.96992
    82    C   17  S      Val( 2S)     1.09046      -0.18815
    83    C   17  px     Val( 2p)     1.00125       0.10138
    84    C   17  py     Val( 2p)     0.98100       0.10382
    85    C   17  pz     Val( 2p)     0.99153       0.10151
 
    86    C   18  S      Cor( 1S)     1.99994     -10.96412
    87    C   18  S      Val( 2S)     1.09381      -0.18545
    88    C   18  px     Val( 2p)     0.99340       0.10609
    89    C   18  py     Val( 2p)     0.98341       0.09885
    90    C   18  pz     Val( 2p)     0.99469       0.10815
 
    91    C   19  S      Cor( 1S)     1.99995     -10.98619
    92    C   19  S      Val( 2S)     1.07383      -0.17153
    93    C   19  px     Val( 2p)     0.90475       0.14140
    94    C   19  py     Val( 2p)     1.00705       0.09576
    95    C   19  pz     Val( 2p)     0.97737       0.09835
 
    96    C   20  S      Cor( 1S)     1.99992     -10.97151
    97    C   20  S      Val( 2S)     1.10184      -0.19979
    98    C   20  px     Val( 2p)     1.00954       0.09777
    99    C   20  py     Val( 2p)     1.00239       0.09952
   100    C   20  pz     Val( 2p)     0.95272       0.10312
 
   101    C   21  S      Cor( 1S)     1.99994     -10.99981
   102    C   21  S      Val( 2S)     1.11369      -0.23159
   103    C   21  px     Val( 2p)     1.00368       0.07663
   104    C   21  py     Val( 2p)     0.99292       0.07956
   105    C   21  pz     Val( 2p)     0.96964       0.09113
 
   106    C   22  S      Cor( 1S)     1.99991     -11.10166
   107    C   22  S      Val( 2S)     1.05639      -0.25128
   108    C   22  px     Val( 2p)     0.87179      -0.00354
   109    C   22  py     Val( 2p)     0.80658       0.20237
   110    C   22  pz     Val( 2p)     0.86449       0.10701
 
   111    O   23  S      Cor( 1S)     1.99999     -20.08839
   112    O   23  S      Val( 2S)     1.80833      -1.04748
   113    O   23  px     Val( 2p)     1.30015      -0.13369
   114    O   23  py     Val( 2p)     1.34530      -0.10003
   115    O   23  pz     Val( 2p)     1.85476      -0.31385
 
   116    O   24  S      Cor( 1S)     1.99999     -20.20550
   117    O   24  S      Val( 2S)     1.72978      -1.01829
   118    O   24  px     Val( 2p)     1.79278      -0.33962
   119    O   24  py     Val( 2p)     1.57793      -0.25277
   120    O   24  pz     Val( 2p)     1.16738      -0.06382
 
   121    C   25  S      Cor( 1S)     1.99984     -11.03892
   122    C   25  S      Val( 2S)     1.07641      -0.22018
   123    C   25  px     Val( 2p)     1.01390       0.05259
   124    C   25  py     Val( 2p)     1.00333       0.05489
   125    C   25  pz     Val( 2p)     0.87139       0.07583
 
   126    C   26  S      Cor( 1S)     1.99992     -11.00834
   127    C   26  S      Val( 2S)     1.06490      -0.18847
   128    C   26  px     Val( 2p)     0.98556       0.07748
   129    C   26  py     Val( 2p)     0.96526       0.08595
   130    C   26  pz     Val( 2p)     1.00034       0.07223
 
   131    C   27  S      Cor( 1S)     1.99996     -10.97538
   132    C   27  S      Val( 2S)     1.08266      -0.18029
   133    C   27  px     Val( 2p)     0.98015       0.10371
   134    C   27  py     Val( 2p)     1.02247       0.09367
   135    C   27  pz     Val( 2p)     1.00124       0.09809
 
   136    C   28  S      Cor( 1S)     1.99990     -10.95080
   137    C   28  S      Val( 2S)     1.07852      -0.17750
   138    C   28  px     Val( 2p)     0.94646       0.15592
   139    C   28  py     Val( 2p)     0.95971       0.18169
   140    C   28  pz     Val( 2p)     0.99892       0.04756
 
   141    C   29  S      Cor( 1S)     1.99993     -10.93792
   142    C   29  S      Val( 2S)     1.08250      -0.17012
   143    C   29  px     Val( 2p)     0.99102       0.13759
   144    C   29  py     Val( 2p)     0.98737       0.16321
   145    C   29  pz     Val( 2p)     0.99342       0.04472
 
   146    C   30  S      Cor( 1S)     1.99995     -10.94393
   147    C   30  S      Val( 2S)     1.08446      -0.17876
   148    C   30  px     Val( 2p)     0.97252       0.14675
   149    C   30  py     Val( 2p)     0.97519       0.16063
   150    C   30  pz     Val( 2p)     1.00066       0.03846
 
   151    C   31  S      Cor( 1S)     1.99993     -10.93813
   152    C   31  S      Val( 2S)     1.07182      -0.17060
   153    C   31  px     Val( 2p)     0.99518       0.13302
   154    C   31  py     Val( 2p)     0.97244       0.16400
   155    C   31  pz     Val( 2p)     1.04875       0.02452
 
   156    C   32  S      Cor( 1S)     1.99985     -10.98561
   157    C   32  S      Val( 2S)     1.06037      -0.18402
   158    C   32  px     Val( 2p)     0.88847       0.14596
   159    C   32  py     Val( 2p)     0.97131       0.16213
   160    C   32  pz     Val( 2p)     0.97027       0.03799
 
   161    C   33  S      Cor( 1S)     1.99990     -10.94448
   162    C   33  S      Val( 2S)     1.08108      -0.18473
   163    C   33  px     Val( 2p)     0.98065       0.15307
   164    C   33  py     Val( 2p)     0.93963       0.15556
   165    C   33  pz     Val( 2p)     1.02366       0.03874
 
   166    N   34  S      Cor( 1S)     1.99998     -15.27180
   167    N   34  S      Val( 2S)     1.41002      -0.59957
   168    N   34  px     Val( 2p)     1.33558      -0.08419
   169    N   34  py     Val( 2p)     1.09774       0.00033
   170    N   34  pz     Val( 2p)     1.43115      -0.13209
 
   171    C   35  S      Cor( 1S)     1.99996     -11.01791
   172    C   35  S      Val( 2S)     1.10715      -0.24152
   173    C   35  px     Val( 2p)     0.97099       0.06411
   174    C   35  py     Val( 2p)     0.96511       0.10023
   175    C   35  pz     Val( 2p)     0.93977       0.09836
 
   176    C   36  S      Cor( 1S)     1.99996     -11.05746
   177    C   36  S      Val( 2S)     1.11117      -0.26324
   178    C   36  px     Val( 2p)     0.92161       0.07802
   179    C   36  py     Val( 2p)     0.85683       0.11157
   180    C   36  pz     Val( 2p)     0.93884       0.08082
 
   181    C   37  S      Cor( 1S)     1.99991     -11.03859
   182    C   37  S      Val( 2S)     1.11979      -0.25920
   183    C   37  px     Val( 2p)     1.01699       0.05898
   184    C   37  py     Val( 2p)     0.90338       0.07185
   185    C   37  pz     Val( 2p)     0.88833       0.09097
 
   186    C   38  S      Cor( 1S)     1.99994     -10.98570
   187    C   38  S      Val( 2S)     1.10297      -0.21986
   188    C   38  px     Val( 2p)     1.00598       0.07623
   189    C   38  py     Val( 2p)     0.99305       0.08090
   190    C   38  pz     Val( 2p)     0.98672       0.07541
 
   191    C   39  S      Cor( 1S)     1.99996     -10.98801
   192    C   39  S      Val( 2S)     1.09208      -0.21041
   193    C   39  px     Val( 2p)     1.01433       0.07562
   194    C   39  py     Val( 2p)     0.97418       0.08084
   195    C   39  pz     Val( 2p)     0.99167       0.08045
 
   196    C   40  S      Cor( 1S)     1.99998     -11.02376
   197    C   40  S      Val( 2S)     1.10741      -0.24762
   198    C   40  px     Val( 2p)     0.94077       0.09272
   199    C   40  py     Val( 2p)     0.95414       0.08838
   200    C   40  pz     Val( 2p)     0.94811       0.08554
 
   201    N   41  S      Cor( 1S)     1.99999     -15.41741
   202    N   41  S      Val( 2S)     1.40423      -0.65970
   203    N   41  px     Val( 2p)     1.23899      -0.11941
   204    N   41  py     Val( 2p)     1.14072      -0.09209
   205    N   41  pz     Val( 2p)     1.18306      -0.10794
 
   206    C   42  S      Cor( 1S)     1.99990     -11.03127
   207    C   42  S      Val( 2S)     1.08981      -0.22913
   208    C   42  px     Val( 2p)     1.01942       0.05780
   209    C   42  py     Val( 2p)     0.84585       0.08892
   210    C   42  pz     Val( 2p)     1.00104       0.05927
 
   211    C   43  S      Cor( 1S)     1.99997     -10.99363
   212    C   43  S      Val( 2S)     1.07980      -0.20320
   213    C   43  px     Val( 2p)     1.00445       0.07543
   214    C   43  py     Val( 2p)     1.02678       0.06932
   215    C   43  pz     Val( 2p)     0.96343       0.08365
 
   216    C   44  S      Cor( 1S)     1.99995     -10.99106
   217    C   44  S      Val( 2S)     1.09012      -0.20983
   218    C   44  px     Val( 2p)     1.00159       0.07889
   219    C   44  py     Val( 2p)     0.98417       0.07938
   220    C   44  pz     Val( 2p)     0.99485       0.07595
 
   221    C   45  S      Cor( 1S)     1.99995     -10.98855
   222    C   45  S      Val( 2S)     1.09097      -0.20728
   223    C   45  px     Val( 2p)     1.03182       0.07640
   224    C   45  py     Val( 2p)     0.96891       0.08008
   225    C   45  pz     Val( 2p)     0.99000       0.07887
 
   226    C   46  S      Cor( 1S)     1.99992     -11.02214
   227    C   46  S      Val( 2S)     1.09138      -0.22270
   228    C   46  px     Val( 2p)     0.88265       0.09325
   229    C   46  py     Val( 2p)     1.00477       0.06228
   230    C   46  pz     Val( 2p)     0.98788       0.06170
 
   231    C   47  S      Cor( 1S)     1.99993     -10.99886
   232    C   47  S      Val( 2S)     1.10222      -0.22822
   233    C   47  px     Val( 2p)     0.96575       0.07128
   234    C   47  py     Val( 2p)     0.97433       0.07848
   235    C   47  pz     Val( 2p)     1.02912       0.06036
 
[...]
                         Standard Origin              Atomic Origin
 NLMO      Total    Paramagnetic  Diamagnetic   Paramagnetic  Diamagnetic
   89       0.1176       -0.2250       0.3426        -0.9517       1.0694
   97       0.2739       -0.9387       1.2125        -0.2435       0.5173
   99       0.5228       -1.0957       1.6184        -0.4692       0.9920
  102       1.6620       -0.7854       2.4473         0.9260       0.7359
  105       1.7017       -0.8960       2.5978         0.8041       0.8976
  106       1.7834        1.1384       0.6450        -0.0176       1.8010
  107      25.6838        0.6465      25.0373         0.2982      25.3856
  109      -0.0085       -1.1324       1.1239        -1.0631       1.0546
 Sum       31.7367       -3.2883      35.0250        -0.7167      32.4534

 Contributions to Isotropic shielding for atom   96 (    32.5244 ppm):
                         Standard Origin              Atomic Origin
 NLMO      Total    Paramagnetic  Diamagnetic   Paramagnetic  Diamagnetic
   97       0.8524        1.7660      -0.9135        -0.0437       0.8961
   98      -0.3631        0.9036      -1.2667        -1.6205       1.2574
  105       0.7797        2.1408      -1.3611        -0.2136       0.9933
  106       0.1120        0.5417      -0.4297        -0.9471       1.0591
  108      26.5693       -0.5113      27.0806         0.6814      25.8879
  109       2.1057        2.3094      -0.2037         0.2824       1.8233
  117       0.0510       -1.3245       1.3755        -0.8970       0.9480
 Sum       30.1070        5.8256      24.2814        -2.7582      32.8652

 Contributions to Isotropic shielding for atom   97 (    32.3806 ppm):
                         Standard Origin              Atomic Origin
 NLMO      Total    Paramagnetic  Diamagnetic   Paramagnetic  Diamagnetic
   94      -0.1963       -0.2092       0.0129        -1.3929       1.1965
   97       1.7316       -0.4802       2.2118         0.9019       0.8298
   98      -0.2078        0.8156      -1.0234        -0.3022       0.0944
  105       1.3924       -0.3484       1.7409         0.2842       1.1082
  107       0.0536       -0.3411       0.3947        -1.0466       1.1002
  108       1.6073        2.8690      -1.2617        -0.2076       1.8149
  109      26.2015        0.2670      25.9345         0.4658      25.7357
 Sum       30.5823        2.5727      28.0096        -1.2975      31.8797

 Contributions to Isotropic shielding for atom   98 (    31.8420 ppm):
                         Standard Origin              Atomic Origin
 NLMO      Total    Paramagnetic  Diamagnetic   Paramagnetic  Diamagnetic
   71      -0.7959       -0.0987      -0.6972        -1.9364       1.1405
   80      -0.0512        0.5267      -0.5779        -1.1366       1.0854
   85       2.0038       -1.4647       3.4685         1.2251       0.7787
   89      -0.0723        0.1323      -0.2046        -1.0444       0.9720
  100       0.5826       -0.8279       1.4105        -0.0372       0.6199
  110       0.8805       -0.1286       1.0091         0.0016       0.8789
  111      25.6895        0.2595      25.4300         0.4866      25.2029
  112       1.6704        2.3346      -0.6642        -0.3121       1.9825
  113      -0.0755       -0.8497       0.7741        -1.1776       1.1021
  121       0.0788       -1.0783       1.1571        -0.7116       0.7904
 Sum       29.9107       -1.1948      31.1055        -4.6426      34.5533

 Contributions to Isotropic shielding for atom   99 (    32.8021 ppm):
                         Standard Origin              Atomic Origin
 NLMO      Total    Paramagnetic  Diamagnetic   Paramagnetic  Diamagnetic
   83      -0.3976        1.2107      -1.6083        -0.9893       0.5917
   85       1.0242        0.5598       0.4644         0.3021       0.7222
   87      -0.2748       -0.1900      -0.0848        -1.0968       0.8220
   89      -0.2025        0.2812      -0.4837        -1.1405       0.9380
  100       0.3879       -0.6129       1.0008         0.3761       0.0118
  110       0.4461        2.2073      -1.7612        -0.1877       0.6338
  111       2.0848        2.1250      -0.0401         0.1986       1.8863
  112      26.0479       -0.1941      26.2420         0.5758      25.4722
  114      -0.0316        0.0916      -0.1232        -1.0626       1.0309
  118       0.7410       -1.2119       1.9529        -0.0580       0.7990
  120       1.2384       -0.5741       1.8126         0.3667       0.8717
  121      -0.1837       -2.9281       2.7444        -1.1603       0.9766
  123       0.3538       -1.0623       1.4161        -0.4179       0.7718
  125       0.0413       -1.7787       1.8200        -0.4341       0.4754
  191      -0.5084        1.1944      -1.7028         0.3066      -0.8150
 Sum       30.7669       -0.8821      31.6490        -4.4213      35.1882

 Contributions to Isotropic shielding for atom  100 (    30.7000 ppm):
                         Standard Origin              Atomic Origin
 NLMO      Total    Paramagnetic  Diamagnetic   Paramagnetic  Diamagnetic
   99      -0.4491        0.7644      -1.2136        -1.1486       0.6995
  100       1.5110       -0.8628       2.3739         0.6099       0.9011
  101      -0.0070        0.7715      -0.7784        -1.0102       1.0032
  111      -0.0489        0.0083      -0.0572        -1.2410       1.1921
  113      25.7696        0.5157      25.2540         0.8861      24.8835
  114       0.9340        2.1662      -1.2322        -0.7885       1.7225
  121       0.0699       -1.1239       1.1938        -0.5453       0.6152
  195       0.3512       -0.9675       1.3187         1.1645      -0.8134
 Sum       28.1307        1.2718      26.8589        -2.0730      30.2038

 Contributions to Isotropic shielding for atom  101 (    31.5178 ppm):
                         Standard Origin              Atomic Origin
 NLMO      Total    Paramagnetic  Diamagnetic   Paramagnetic  Diamagnetic
   99      -0.6354        1.2540      -1.8894        -1.7433       1.1079
  100       1.0552       -0.3729       1.4282         0.5191       0.5361
  104      -0.0569       -1.6068       1.5499        -0.6957       0.6388
  113       1.4494        2.2835      -0.8340        -0.4657       1.9152
  114      26.5688        0.1631      26.4057         1.1445      25.4243
  116      -0.4355       -1.9955       1.5600        -0.5352       0.0997
  120       0.8363       -0.6660       1.5023         0.4561       0.3802
  121       0.2867       -2.6533       2.9400        -0.7028       0.9896
  191      -0.8630        1.5947      -2.4576         0.1263      -0.9893
 Sum       28.2057       -1.9994      30.2051        -1.8968      30.1025

 Contributions to Isotropic shielding for atom  102 (    31.8384 ppm):
                         Standard Origin              Atomic Origin
 NLMO      Total    Paramagnetic  Diamagnetic   Paramagnetic  Diamagnetic
   87       0.3691       -1.0397       1.4089         0.0989       0.2703
   89      -0.3760        0.6028      -0.9787        -1.0589       0.6829
   97      -0.1620        1.1896      -1.3517        -0.9023       0.7402
   98       1.9625       -1.5221       3.4847         1.0101       0.9525
  104      -0.1942       -1.2783       1.0841        -0.3673       0.1731
  114      -0.2797       -1.7034       1.4237        -0.2327      -0.0470
  115       0.4541        1.8479      -1.3937        -0.3981       0.8523
  116      26.2734        0.0267      26.2467         0.5862      25.6872
  117       1.5034        3.2342      -1.7307        -0.3773       1.8807
  118       0.1984       -0.1708       0.3692        -0.8671       1.0655
  120       0.4491       -1.5044       1.9536        -0.4299       0.8790
  121       0.5925       -2.4416       3.0341        -1.0741       1.6666
  191      -0.7020        1.0383      -1.7404         0.1822      -0.8843
 Sum       30.0887       -1.7208      31.8095        -3.8303      33.9190

 Contributions to Isotropic shielding for atom  103 (    32.1698 ppm):
                         Standard Origin              Atomic Origin
 NLMO      Total    Paramagnetic  Diamagnetic   Paramagnetic  Diamagnetic
   87       0.3961       -0.8576       1.2537         0.2037       0.1923
   94      -0.2204        1.4309      -1.6513        -1.0627       0.8423
   97      -0.2192        1.5170      -1.7362        -1.0842       0.8649
   98       1.8469       -0.5649       2.4118         0.8891       0.9579
  115       0.2710        2.8750      -2.6040        -0.8312       1.1022
  116       1.6948        2.8250      -1.1302        -0.2053       1.9001
  117      26.4876       -0.4100      26.8976         0.6697      25.8179
  119      -0.1540       -0.8184       0.6644        -1.3036       1.1496
  121       0.2397       -0.8279       1.0676        -0.7611       1.0008
 Sum       30.3424        5.1690      25.1734        -3.4856      33.8280

 Contributions to Isotropic shielding for atom  104 (    31.2082 ppm):
                         Standard Origin              Atomic Origin
 NLMO      Total    Paramagnetic  Diamagnetic   Paramagnetic  Diamagnetic
   81      -0.5740        1.4317      -2.0057        -1.2478       0.6739
   86      -0.3649        1.5692      -1.9341        -1.4732       1.1084
   87       1.9558       -0.0198       1.9757         0.9974       0.9584
   98       0.2770       -0.7424       1.0194         0.0846       0.1924
  115       1.3553        1.5847      -0.2294         0.1622       1.1931
  117      -0.2453        0.2850      -0.5303        -1.4168       1.1715
  118      -0.1607        5.0572      -5.2179        -1.0496       0.8889
  119      25.9992       -0.7881      26.7874         0.4996      25.4996
  122       0.9054       -2.0486       2.9540        -0.7808       1.6863
  125       0.1543       -0.9498       1.1041        -0.2988       0.4531
  127      -0.2172       -2.3115       2.0943        -0.6459       0.4287
  193      -0.8544        0.2717      -1.1260         0.1633      -1.0176
 Sum       28.2306        3.3391      24.8916        -5.0059      33.2365

 Contributions to Isotropic shielding for atom  105 (    30.5136 ppm):
                         Standard Origin              Atomic Origin
 NLMO      Total    Paramagnetic  Diamagnetic   Paramagnetic  Diamagnetic
  120      -0.6908        0.3528      -1.0437        -1.3096       0.6188
  121      -0.1601        1.1572      -1.3173        -1.1907       1.0306
  123       0.9313        1.3301      -0.3988        -1.1438       2.0751
  124      26.0411        0.3515      25.6896         0.8720      25.1690
  125       1.2867        1.3588      -0.0721        -0.7090       1.9958
  126       0.5315        4.1348      -3.6033        -1.4545       1.9860
  191       0.2732       -0.7929       1.0661         0.6564      -0.3831
  193       1.0765       -1.0888       2.1653         1.5445      -0.4680
  194       1.0716        0.4686       0.6030         0.8154       0.2562
 Sum       30.3611        7.2722      23.0889        -1.9193      32.2805

 Contributions to Isotropic shielding for atom  106 (    30.6361 ppm):
                         Standard Origin              Atomic Origin
 NLMO      Total    Paramagnetic  Diamagnetic   Paramagnetic  Diamagnetic
  120      -1.0365        0.7507      -1.7872        -1.9344       0.8979
  121      -0.4482        1.5572      -2.0054        -1.9795       1.5314
  122      -1.3277        1.3912      -2.7189        -2.1756       0.8479
  123       2.9411       -5.3116       8.2527         1.5252       1.4159
  124       1.4341        1.9228      -0.4888        -0.6111       2.0451
  125      26.1373        1.0335      25.1038         0.9766      25.1607
  126       1.1384        1.4778      -0.3394        -0.7368       1.8752
  191       0.3764       -1.1395       1.5159         1.1491      -0.7726
 Sum       29.2150        1.6822      27.5327        -3.7866      33.0015

 Contributions to Isotropic shielding for atom  107 (    30.5804 ppm):
                         Standard Origin              Atomic Origin
 NLMO      Total    Paramagnetic  Diamagnetic   Paramagnetic  Diamagnetic
  120      -1.4132        1.0446      -2.4578        -2.3095       0.8963
  121      -0.6443        2.4130      -3.0573        -2.1993       1.5550
  122      -1.9792        1.4443      -3.4235        -2.7641       0.7849
  123       1.3987       -0.1316       1.5302        -0.0656       1.4643
  124       1.1156        4.7022      -3.5866        -0.9270       2.0427
  125       1.4402        0.8840       0.5562        -0.4319       1.8720
  126      26.4857        0.6564      25.8292         1.2609      25.2248
  191       0.6666       -1.7869       2.4535         1.4460      -0.7794
  192       0.8314        1.0832      -0.2517         1.0501      -0.2186
  193       1.6064       -1.1271       2.7335         1.6675      -0.0611
  194       0.5755        1.0258      -0.4504         0.1011       0.4743
 Sum       30.0834       10.2079      19.8755        -3.1718      33.2552

 Contributions to Isotropic shielding for atom  108 (    30.9858 ppm):
                         Standard Origin              Atomic Origin
 NLMO      Total    Paramagnetic  Diamagnetic   Paramagnetic  Diamagnetic
   76      -0.5603        0.0323      -0.5926        -1.4139       0.8536
   81      -0.5120        1.0995      -1.6115        -1.2431       0.7311
   82       1.2280       -0.2831       1.5112         0.0324       1.1956
   86      -0.1930        0.8732      -1.0662        -0.9996       0.8066
   87      -0.2611        1.1361      -1.3973        -1.1412       0.8801
  118      -0.3734        0.5592      -0.9326        -1.1005       0.7271
  122       1.0959       -1.0612       2.1571         0.5188       0.5771
  124       0.0653       -1.1863       1.2516        -0.6556       0.7209
  127      26.0024        0.1774      25.8250         0.6562      25.3461
  128       1.4871        4.0540      -2.5668        -0.4964       1.9836
  129       1.6169        0.9626       0.6543        -0.2150       1.8319
  190       1.0503       -0.0412       1.0915         1.0539      -0.0036
  193      -1.0225        0.4590      -1.4815         0.2659      -1.2884
 Sum       29.6237        6.7815      22.8422        -4.7380      34.3617

 Contributions to Isotropic shielding for atom  109 (    30.7572 ppm):
                         Standard Origin              Atomic Origin
 NLMO      Total    Paramagnetic  Diamagnetic   Paramagnetic  Diamagnetic
   75      -0.5916        0.8043      -1.3959        -1.3007       0.7091
   76      -1.0003        0.3143      -1.3146        -2.3593       1.3590
   79      -0.4842        0.9070      -1.3912        -1.1239       0.6397
   82       1.2955        0.1892       1.1063         0.0348       1.2607
  122       0.6610       -0.5190       1.1800         0.3452       0.3158
  124       0.0081       -1.1213       1.1294        -0.6038       0.6119
  127       1.5079        4.0029      -2.4950        -0.4606       1.9686
  128      26.0415        0.1101      25.9314         0.7028      25.3386
  129       1.6286        1.2881       0.3405        -0.1698       1.7984
 Sum       29.0665        5.9758      23.0908        -4.9353      34.0018

 Contributions to Isotropic shielding for atom  110 (    31.9680 ppm):
                         Standard Origin              Atomic Origin
 NLMO      Total    Paramagnetic  Diamagnetic   Paramagnetic  Diamagnetic
   75      -0.3124        0.6905      -1.0028        -0.9425       0.6301
   76      -0.9045        0.0007      -0.9052        -2.1172       1.2127
   79      -0.4696        0.8005      -1.2701        -1.1398       0.6702
   82       2.1077       -3.2997       5.4074         1.3451       0.7626
   86      -0.2351        0.6641      -0.8992        -1.2511       1.0160
   93       0.0109        1.0125      -1.0016        -0.8481       0.8590
  122       0.5148       -0.5569       1.0717        -0.0666       0.5814
  127       1.8044        1.8025       0.0019        -0.1129       1.9173
  128       1.8058        2.2937      -0.4879        -0.0923       1.8981
  129      26.4651        0.8093      25.6557         0.7785      25.6866
 Sum       30.7870        4.2172      26.5698        -4.4469      35.2339
 
 1\1\GINC-PCSN02\SP\RHF\STO-3G\C45H56N4O5\ABENIDD\30-May-2024\0\\# nmr=
 giao hf/sto-3g pop=nbo geom=connectivity\\pleiokomenine_C_1a\\0,1\C,0,
 0.,0.,0.\C,0,1.4021,0.,0.\C,0,2.0977,1.228,0.\C,0,1.4154,2.4517,-0.006
 8\C,0,0.0319,2.4449,-0.008\C,0,-0.6609,1.2176,0.014\N,0,-0.8532,3.5606
 ,-0.0247\C,0,-2.1315,1.5126,0.1789\C,0,-2.1238,2.9383,-0.4823\C,0,-3.2
 085,0.6615,-0.4949\C,0,-2.0561,2.7778,-2.0701\C,0,-3.2302,1.9598,-2.61
 01\C,0,-4.105,1.4919,-1.4419\N,0,-4.0706,0.2388,0.6093\C,0,-5.002,-0.7
 954,0.2193\C,0,-5.9724,-0.1655,-0.7948\C,0,-5.2602,0.5875,-1.9348\C,0,
 -2.4097,1.3182,1.6953\C,0,-3.2124,0.0152,1.7509\C,0,-4.622,2.7835,-0.7
 142\C,0,-3.4444,3.7035,-0.2511\C,0,-3.674,4.2889,1.1331\O,0,-4.6026,4.
 0039,1.8791\O,0,-2.7614,5.2648,1.4032\C,0,-2.8955,5.8514,2.6968\C,0,-0
 .3526,4.7851,-0.6279\C,0,2.1595,-1.3078,0.1007\C,0,2.5224,-1.6742,1.52
 43\C,0,1.512,-1.9121,2.4652\C,0,3.872,-1.7863,1.9202\C,0,4.2219,-2.103
 1,3.2416\C,0,3.2165,-2.2869,4.1743\C,0,1.8729,-2.2035,3.7696\N,0,3.336
 8,-2.5369,5.5722\C,0,0.9895,-2.532,4.9444\C,0,2.007,-2.1011,6.0707\C,0
 ,-0.3413,-1.7983,5.1628\C,0,2.0027,-0.5175,6.2015\C,0,0.6154,0.0071,6.
 5697\C,0,-0.4004,-1.1558,6.5832\N,0,-1.4362,-2.8194,4.8795\C,0,-2.6858
 ,-2.5995,5.7005\C,0,-2.9018,-1.127,5.9808\C,0,-1.8083,-0.6021,6.9107\C
 ,0,0.6268,-4.0242,4.7708\C,0,-0.8262,-4.1613,5.167\C,0,0.1023,-2.1359,
 7.6968\C,0,1.5756,-2.5901,7.4645\C,0,1.7808,-4.0647,7.7549\O,0,0.8847,
 -4.8982,7.7951\O,0,3.0879,-4.3267,8.0289\C,0,3.3719,-5.7045,8.2726\C,0
 ,4.5668,-2.0845,6.2054\O,0,-1.776,-2.7507,3.5421\H,0,-0.5571,-0.9313,0
 .0515\H,0,3.1853,1.2328,0.0289\H,0,1.9753,3.3792,0.006\H,0,-2.7633,-0.
 1998,-1.0118\H,0,-1.121,2.3098,-2.4019\H,0,-2.0613,3.7662,-2.5487\H,0,
 -3.8143,2.5644,-3.3149\H,0,-2.8477,1.1038,-3.18\H,0,-4.4912,-1.6623,-0
 .2164\H,0,-5.5774,-1.1481,1.0826\H,0,-6.6337,0.5358,-0.2694\H,0,-6.618
 4,-0.9435,-1.2176\H,0,-4.8572,-0.1624,-2.6286\H,0,-5.9927,1.1736,-2.50
 24\H,0,-3.0129,2.1229,2.1138\H,0,-1.5137,1.2405,2.3228\H,0,-2.5716,-0.
 864,1.6265\H,0,-3.7705,-0.0686,2.6877\H,0,-5.2576,3.3555,-1.404\H,0,-5
 .2748,2.5147,0.1226\H,0,-3.4674,4.5853,-0.9097\H,0,-2.8114,5.0886,3.47
 74\H,0,-2.0821,6.5702,2.8284\H,0,-3.8469,6.3863,2.7765\H,0,0.0731,4.61
 1,-1.6226\H,0,0.4163,5.2374,0.0075\H,0,-1.1548,5.5222,-0.7317\H,0,3.06
 21,-1.2421,-0.5206\H,0,1.5668,-2.1225,-0.3356\H,0,0.461,-1.8778,2.1883
 \H,0,4.6658,-1.6211,1.1948\H,0,5.2677,-2.1812,3.5144\H,0,-0.4934,-1.01
 07,4.4108\H,0,2.7193,-0.196,6.9688\H,0,2.3334,-0.0231,5.2797\H,0,0.653
 1,0.4991,7.5501\H,0,0.3162,0.7796,5.8495\H,0,-3.5141,-3.0293,5.126\H,0
 ,-2.591,-3.1588,6.6363\H,0,-3.8817,-0.9687,6.4446\H,0,-2.8942,-0.5565,
 5.0447\H,0,-2.0754,-0.8544,7.9449\H,0,-1.8246,0.494,6.8635\H,0,0.6986,
 -4.3357,3.719\H,0,1.2796,-4.7117,5.3119\H,0,-1.3683,-4.914,4.5855\H,0,
 -0.9436,-4.3757,6.2278\H,0,-0.5831,-2.9794,7.8016\H,0,0.0611,-1.6244,8
 .6692\H,0,2.1781,-2.0785,8.2308\H,0,4.4496,-5.8058,8.4272\H,0,3.0875,-
 6.3148,7.4095\H,0,2.8578,-6.0456,9.1764\H,0,4.4984,-2.1767,7.2935\H,0,
 5.4111,-2.7043,5.8849\H,0,4.7917,-1.0377,5.9717\\Version=ES64L-G16RevB
 .01\State=1-A\HF=-2300.2148955\RMSD=3.952e-09\Dipole=1.0342016,0.37014
 94,1.3835073\Quadrupole=-8.3303129,-3.9630033,12.2933162,-1.7115137,6.
 2042107,-7.4532058\PG=C01 [X(C45H56N4O5)]\\@


 CONTRAIWISE...CONTINUED TWEEDLEDEE, IF IT WAS SO, IT MIGHT BE,
 AND IF IT WERE SO, IT WOULD BE.....
 BUT AS IT ISN'T, IT AIN'T....
 THAT'S LOGIC.....
 ALICE THROUGH THE LOOKING GLASS
 Job cpu time:       0 days  0 hours 11 minutes 34.6 seconds.
 Elapsed time:       0 days  0 hours  1 minutes 57.1 seconds.
 File lengths (MBytes):  RWF=     67 Int=      0 D2E=      0 Chk=     10 Scr=      1
 Normal termination of Gaussian 16 at Thu May 30 09:08:47 2024.
