 Entering Gaussian System, Link 0=g16
 Input=1_pleiokomenine_1a_c_1.gjf
 Output=1_pleiokomenine_1a_c_1.log
 Initial command:
 /opt/gaussian/g16/l1.exe "/data/abenidd/Elvis/pleiokomenine_C/NMR_HF/1a/1_pleiokomenine_1a_c_1/Gau-23935.inp" -scrdir="/data/abenidd/Elvis/pleiokomenine_C/NMR_HF/1a/1_pleiokomenine_1a_c_1/"
 Entering Link 1 = /opt/gaussian/g16/l1.exe PID=     23937.
  
 Copyright (c) 1988-2017, Gaussian, Inc.  All Rights Reserved.
  
 This is part of the Gaussian(R) 16 program.  It is based on
 the Gaussian(R) 09 system (copyright 2009, Gaussian, Inc.),
 the Gaussian(R) 03 system (copyright 2003, Gaussian, Inc.),
 the Gaussian(R) 98 system (copyright 1998, Gaussian, Inc.),
 the Gaussian(R) 94 system (copyright 1995, Gaussian, Inc.),
 the Gaussian 92(TM) system (copyright 1992, Gaussian, Inc.),
 the Gaussian 90(TM) system (copyright 1990, Gaussian, Inc.),
 the Gaussian 88(TM) system (copyright 1988, Gaussian, Inc.),
 the Gaussian 86(TM) system (copyright 1986, Carnegie Mellon
 University), and the Gaussian 82(TM) system (copyright 1983,
 Carnegie Mellon University). Gaussian is a federally registered
 trademark of Gaussian, Inc.
  
 This software contains proprietary and confidential information,
 including trade secrets, belonging to Gaussian, Inc.
  
 This software is provided under written license and may be
 used, copied, transmitted, or stored only in accord with that
 written license.
  
 The following legend is applicable only to US Government
 contracts under FAR:
  
                    RESTRICTED RIGHTS LEGEND
  
 Use, reproduction and disclosure by the US Government is
 subject to restrictions as set forth in subparagraphs (a)
 and (c) of the Commercial Computer Software - Restricted
 Rights clause in FAR 52.227-19.
  
 Gaussian, Inc.
 340 Quinnipiac St., Bldg. 40, Wallingford CT 06492
  
  
 ---------------------------------------------------------------
 Warning -- This program may not be used in any manner that
 competes with the business of Gaussian, Inc. or will provide
 assistance to any competitor of Gaussian, Inc.  The licensee
 of this program is prohibited from giving any competitor of
 Gaussian, Inc. access to this program.  By using this program,
 the user acknowledges that Gaussian, Inc. is engaged in the
 business of creating and licensing software in the field of
 computational chemistry and represents and warrants to the
 licensee that it is not a competitor of Gaussian, Inc. and that
 it will not use this program in any manner prohibited above.
 ---------------------------------------------------------------
  

 Cite this work as:
 Gaussian 16, Revision B.01,
 M. J. Frisch, G. W. Trucks, H. B. Schlegel, G. E. Scuseria, 
 M. A. Robb, J. R. Cheeseman, G. Scalmani, V. Barone, 
 G. A. Petersson, H. Nakatsuji, X. Li, M. Caricato, A. V. Marenich, 
 J. Bloino, B. G. Janesko, R. Gomperts, B. Mennucci, H. P. Hratchian, 
 J. V. Ortiz, A. F. Izmaylov, J. L. Sonnenberg, D. Williams-Young, 
 F. Ding, F. Lipparini, F. Egidi, J. Goings, B. Peng, A. Petrone, 
 T. Henderson, D. Ranasinghe, V. G. Zakrzewski, J. Gao, N. Rega, 
 G. Zheng, W. Liang, M. Hada, M. Ehara, K. Toyota, R. Fukuda, 
 J. Hasegawa, M. Ishida, T. Nakajima, Y. Honda, O. Kitao, H. Nakai, 
 T. Vreven, K. Throssell, J. A. Montgomery, Jr., J. E. Peralta, 
 F. Ogliaro, M. J. Bearpark, J. J. Heyd, E. N. Brothers, K. N. Kudin, 
 V. N. Staroverov, T. A. Keith, R. Kobayashi, J. Normand, 
 K. Raghavachari, A. P. Rendell, J. C. Burant, S. S. Iyengar, 
 J. Tomasi, M. Cossi, J. M. Millam, M. Klene, C. Adamo, R. Cammi, 
 J. W. Ochterski, R. L. Martin, K. Morokuma, O. Farkas, 
 J. B. Foresman, and D. J. Fox, Gaussian, Inc., Wallingford CT, 2016.
 
 ******************************************
 Gaussian 16:  ES64L-G16RevB.01 20-Dec-2017
                30-May-2024 
 ******************************************
 %nprocshared=8
 Will use up to    8 processors via shared memory.
 ----------------------------------------------
 # nmr=giao hf/sto-3g pop=nbo geom=connectivity
 ----------------------------------------------
 1/38=1,57=2,172=1/1;
 2/12=2,17=6,18=5,40=1/2;
 3/6=3,11=9,25=1,30=1/1,2,3,8;
 4//1;
 5/5=2,38=5/2;
 8/6=1,10=90,11=11/1;
 10/13=100,45=16/2;
 6/7=2,8=2,9=2,10=2,28=1,40=1,64=1/1,7;
 99/9=1/99;
 ------------------
 pleiokomenine_C_1a
 ------------------
 Symbolic Z-matrix:
 Charge =  0 Multiplicity = 1
 C                     0.        0.        0. 
 C                     1.4013    0.        0. 
 C                     2.0941    1.2293    0. 
 C                     1.4088    2.4527   -0.0288 
 C                     0.0264    2.4419   -0.0897 
 C                    -0.6623    1.2138   -0.0531 
 N                    -0.8626    3.5474   -0.2445 
 C                    -2.1417    1.4996   -0.0617 
 C                    -2.0678    2.8777   -0.8103 
 C                    -3.127     0.5888   -0.794 
 C                    -1.8108    2.6201   -2.368 
 C                    -2.8898    1.7292   -2.9843 
 C                    -3.9018    1.3329   -1.9042 
 N                    -4.1167    0.2374    0.2299 
 C                    -4.9702   -0.8472   -0.2049 
 C                    -5.8138   -0.3149   -1.3763 
 C                    -4.9752    0.3728   -2.4702 
 C                    -2.5844    1.404     1.4218 
 C                    -3.3949    0.1065    1.474 
 C                    -4.5163    2.6646   -1.3441 
 C                    -3.4154    3.6309   -0.7902 
 C                    -3.8256    4.2869    0.5183 
 O                    -4.846     4.0363    1.1479 
 O                    -2.9549    5.2793    0.8568 
 C                    -3.2556    5.9279    2.0915 
 C                    -0.3135    4.7441   -0.8614 
 C                     2.1525   -1.3121   -0.0698 
 C                     2.3023   -1.8284   -1.486 
 C                     1.1916   -2.3574   -2.1588 
 C                     3.5325   -1.7262   -2.165 
 C                     3.6656   -2.1519   -3.4942 
 C                     2.5618   -2.6736   -4.1482 
 C                     1.3286   -2.746    -3.4813 
 N                     2.4839   -3.175    -5.4741 
 C                     0.2682   -3.1999   -4.4535 
 C                     1.2329   -3.9701   -5.4441 
 C                    -0.8576   -4.1476   -4.0064 
 C                     1.5344   -5.4107   -4.8396 
 C                     0.2474   -6.2389   -4.7084 
 C                    -0.9648   -5.3358   -5.0216 
 N                    -2.0957   -3.2745   -3.877 
 C                    -3.3904   -4.0433   -3.9123 
 C                    -3.4732   -5.1455   -4.9503 
 C                    -2.2837   -6.0912   -4.8303 
 C                    -0.4623   -1.9193   -4.9389 
 C                    -1.949    -2.249    -4.9559 
 C                    -0.7887   -4.932    -6.526 
 C                     0.5783   -4.2585   -6.8036 
 C                     0.453    -3.0925   -7.768 
 O                    -0.5958   -2.514    -8.0264 
 O                     1.6477   -2.8221   -8.3608 
 C                     1.6213   -1.7072   -9.2521 
 C                     3.7123   -3.7118   -6.0402 
 O                    -2.0751   -2.6232   -2.6501 
 H                    -0.5613   -0.9299    0.0103 
 H                     3.1817    1.2378   -0.0002 
 H                     1.9673    3.3809   -0.0402 
 H                    -2.6204   -0.3026   -1.1863 
 H                    -1.7882    3.577    -2.9065 
 H                    -0.831     2.1666   -2.563 
 H                    -3.3857    2.2576   -3.8079 
 H                    -2.4207    0.8406   -3.4246 
 H                    -4.3921   -1.7279   -0.5095 
 H                    -5.6455   -1.1564    0.6008 
 H                    -6.3884   -1.1369   -1.8186 
 H                    -6.5474    0.405    -0.9907 
 H                    -4.48     -0.4149   -3.0537 
 H                    -5.6383    0.9025   -3.1644 
 H                    -3.2241    2.2333    1.7207 
 H                    -1.7611    1.368     2.1452 
 H                    -2.7456   -0.7763    1.4921 
 H                    -4.0567    0.0866    2.3448 
 H                    -5.054     3.1796   -2.1519 
 H                    -5.2764    2.4447   -0.5874 
 H                    -3.3652    4.475    -1.495 
 H                    -3.2774    5.2043    2.9127 
 H                    -2.4641    6.6547    2.2936 
 H                    -4.2074    6.4631    2.0193 
 H                     0.2027    4.5258   -1.803 
 H                     0.3917    5.2342   -0.1815 
 H                    -1.1061    5.4678   -1.0748 
 H                     1.6362   -2.0676    0.5374 
 H                     3.139    -1.198     0.3978 
 H                     0.2208   -2.4146   -1.6747 
 H                     4.3966   -1.2981   -1.6619 
 H                     4.6228   -2.054    -3.9928 
 H                    -0.6963   -4.5411   -2.9931 
 H                     2.2435   -5.9557   -5.4759 
 H                     2.0177   -5.3457   -3.8568 
 H                     0.1805   -6.6593   -3.6972 
 H                     0.2826   -7.0946   -5.3946 
 H                    -3.4962   -4.4802   -2.9106 
 H                    -4.1856   -3.3011   -4.0457 
 H                    -4.3996   -5.7116   -4.7976 
 H                    -3.5388   -4.7205   -5.9562 
 H                    -2.3028   -6.5702   -3.8428 
 H                    -2.3792   -6.8968   -5.5683 
 H                    -0.3292   -1.0955   -4.2227 
 H                    -0.1018   -1.5169   -5.8843 
 H                    -2.2901   -2.6807   -5.8942 
 H                    -2.5816   -1.3927   -4.7017 
 H                    -1.6215   -4.323    -6.8757 
 H                    -0.8453   -5.8392   -7.1454 
 H                     1.1847   -4.9972   -7.35 
 H                     0.9684   -1.9166   -10.105 
 H                     2.6371   -1.5468   -9.6237 
 H                     1.298    -0.8024   -8.7277 
 H                     3.515    -4.2056   -6.9966 
 H                     4.4264   -2.9056   -6.2393 
 H                     4.1852   -4.4442   -5.3762 
 
 Stoichiometry    C45H56N4O5
 Framework group  C1[X(C45H56N4O5)]
 Deg. of freedom   324
 Full point group                 C1      NOp   1
 Largest Abelian subgroup         C1      NOp   1
 Largest concise Abelian subgroup C1      NOp   1
                         Standard orientation:                         
 ---------------------------------------------------------------------
 Center     Atomic      Atomic             Coordinates (Angstroms)
 Number     Number       Type             X           Y           Z
 ---------------------------------------------------------------------
      1          6           0        1.840550    1.614924   -1.665230
      2          6           0        1.346691    2.921715   -1.774965
      3          6           0        1.971059    3.961181   -1.053283
      4          6           0        3.059267    3.708790   -0.205183
      5          6           0        3.501461    2.405990   -0.056750
      6          6           0        2.898957    1.376848   -0.806238
      7          7           0        4.500835    1.904849    0.830112
      8          6           0        3.616987    0.087246   -0.503353
      9          6           0        4.105197    0.472061    0.938379
     10          6           0        2.871327   -1.245454   -0.436009
     11          6           0        2.876676    0.368961    1.957665
     12          6           0        2.249286   -1.025366    1.955396
     13          6           0        2.988796   -1.915421    0.951035
     14          7           0        3.600211   -2.109738   -1.370408
     15          6           0        2.867880   -3.325426   -1.652655
     16          6           0        2.822395   -4.137559   -0.346686
     17          6           0        2.341410   -3.318264    0.865834
     18          6           0        4.615874   -0.108258   -1.673780
     19          6           0        4.016836   -1.270587   -2.469573
     20          6           0        4.489971   -1.968710    1.407522
     21          6           0        5.124620   -0.540260    1.503820
     22          6           0        6.535681   -0.494182    0.940298
     23          8           0        7.104624   -1.420736    0.376192
     24          8           0        7.137711    0.691946    1.237312
     25          6           0        8.459662    0.825437    0.717493
     26          6           0        4.774229    2.696775    2.018505
     27          6           0        0.112079    3.190698   -2.608129
     28          6           0       -1.174603    2.928489   -1.852929
     29          6           0       -1.569802    1.610970   -1.580685
     30          6           0       -1.952650    3.994947   -1.360803
     31          6           0       -3.116043    3.760698   -0.614243
     32          6           0       -3.496980    2.455091   -0.352439
     33          6           0       -2.704246    1.393350   -0.816183
     34          7           0       -4.637469    2.000399    0.360316
     35          6           0       -3.247852    0.096734   -0.269442
     36          6           0       -4.739928    0.584344   -0.066736
     37          6           0       -3.246280   -1.181691   -1.124477
     38          6           0       -5.493029    0.505527   -1.466120
     39          6           0       -5.544081   -0.937780   -1.989337
     40          6           0       -4.671011   -1.831565   -1.082690
     41          7           0       -2.113659   -2.035260   -0.576272
     42          6           0       -2.222209   -3.494566   -0.932912
     43          6           0       -3.608770   -4.097975   -0.821159
     44          6           0       -4.622503   -3.271280   -1.603834
     45          6           0       -2.383512   -0.255813    0.970641
     46          6           0       -2.102929   -1.750594    0.892076
     47          6           0       -5.371015   -1.789545    0.319278
     48          6           0       -5.547302   -0.345607    0.851554
     49          6           0       -5.271177   -0.250498    2.341532
     50          8           0       -4.651402   -1.086621    2.988209
     51          8           0       -5.864975    0.851086    2.876089
     52          6           0       -5.614949    1.034289    4.269659
     53          6           0       -5.797066    2.879559    0.362126
     54          8           0       -0.907822   -1.602579   -1.113529
     55          1           0        1.387691    0.795622   -2.216176
     56          1           0        1.593640    4.978116   -1.132933
     57          1           0        3.511236    4.524752    0.345759
     58          1           0        1.822239   -1.123844   -0.735612
     59          1           0        3.214313    0.606259    2.975428
     60          1           0        2.091287    1.104965    1.745160
     61          1           0        2.291948   -1.456371    2.963292
     62          1           0        1.185936   -0.945852    1.697536
     63          1           0        1.854974   -3.119056   -2.018778
     64          1           0        3.381868   -3.919476   -2.416663
     65          1           0        2.172702   -5.010375   -0.479233
     66          1           0        3.826204   -4.526862   -0.132387
     67          1           0        1.252268   -3.206053    0.780120
     68          1           0        2.523328   -3.883150    1.787792
     69          1           0        5.610676   -0.389475   -1.330878
     70          1           0        4.744228    0.768893   -2.319192
     71          1           0        3.175391   -0.944560   -3.091611
     72          1           0        4.770415   -1.748588   -3.102267
     73          1           0        4.547593   -2.440343    2.398042
     74          1           0        5.066867   -2.621452    0.744332
     75          1           0        5.270777   -0.341113    2.576548
     76          1           0        8.460066    0.710790   -0.371221
     77          1           0        8.818243    1.829916    0.958316
     78          1           0        9.128928    0.097034    1.185561
     79          1           0        3.860220    2.950936    2.566882
     80          1           0        5.289212    3.624880    1.747983
     81          1           0        5.433915    2.153559    2.702045
     82          1           0        0.132891    2.568929   -3.513119
     83          1           0        0.131984    4.225326   -2.974188
     84          1           0       -0.970990    0.768246   -1.914326
     85          1           0       -1.645973    5.021847   -1.546473
     86          1           0       -3.690206    4.601341   -0.242659
     87          1           0       -2.959292   -0.987846   -2.167405
     88          1           0       -6.518484    0.886054   -1.374649
     89          1           0       -5.014299    1.141284   -2.221323
     90          1           0       -5.196963   -0.965704   -3.029753
     91          1           0       -6.582174   -1.293470   -2.002702
     92          1           0       -1.878869   -3.565634   -1.973366
     93          1           0       -1.499440   -4.020916   -0.299224
     94          1           0       -3.588533   -5.117534   -1.223767
     95          1           0       -3.902689   -4.191258    0.228448
     96          1           0       -4.348177   -3.277341   -2.666693
     97          1           0       -5.610926   -3.741480   -1.535368
     98          1           0       -1.408860    0.251631    0.927542
     99          1           0       -2.806440    0.051146    1.925930
    100          1           0       -2.863548   -2.363652    1.370343
    101          1           0       -1.118985   -2.024019    1.285957
    102          1           0       -4.861846   -2.429735    1.038744
    103          1           0       -6.372147   -2.236161    0.229049
    104          1           0       -6.618245   -0.107815    0.759432
    105          1           0       -6.056211    0.215871    4.846760
    106          1           0       -6.087667    1.970806    4.578104
    107          1           0       -4.539925    1.109981    4.461431
    108          1           0       -6.663347    2.377705    0.803902
    109          1           0       -5.601321    3.770217    0.968716
    110          1           0       -6.073698    3.197160   -0.649578
 ---------------------------------------------------------------------
 Rotational constants (GHZ):           0.0959174           0.0342901           0.0306099
 Standard basis: STO-3G (5D, 7F)
 There are   326 symmetry adapted cartesian basis functions of A   symmetry.
 There are   326 symmetry adapted basis functions of A   symmetry.
   326 basis functions,   978 primitive gaussians,   326 cartesian basis functions
   197 alpha electrons      197 beta electrons
       nuclear repulsion energy      8199.8602663500 Hartrees.
 NAtoms=  110 NActive=  110 NUniq=  110 SFac= 1.00D+00 NAtFMM=   60 NAOKFM=T Big=T
 Integral buffers will be    131072 words long.
 Raffenetti 1 integral format.
 Two-electron integral symmetry is turned on.
 One-electron integrals computed using PRISM.
 NBasis=   326 RedAO= T EigKep=  1.72D-01  NBF=   326
 NBsUse=   326 1.00D-06 EigRej= -1.00D+00 NBFU=   326
 ExpMin= 1.69D-01 ExpMax= 1.31D+02 ExpMxC= 1.31D+02 IAcc=3 IRadAn=         5 AccDes= 0.00D+00
 Harris functional with IExCor=  205 and IRadAn=       5 diagonalized for initial guess.
 HarFok:  IExCor=  205 AccDes= 0.00D+00 IRadAn=         5 IDoV= 1 UseB2=F ITyADJ=14
 ICtDFT=  3500011 ScaDFX=  1.000000  1.000000  1.000000  1.000000
 FoFCou: FMM=F IPFlag=           0 FMFlag=      100000 FMFlg1=        2001
         NFxFlg=           0 DoJE=T BraDBF=F KetDBF=T FulRan=T
         wScrn=  0.000000 ICntrl=       500 IOpCl=  0 I1Cent=   200000004 NGrid=           0
         NMat0=    1 NMatS0=      1 NMatT0=    0 NMatD0=    1 NMtDS0=    0 NMtDT0=    0
 Petite list used in FoFCou.
 Requested convergence on RMS density matrix=1.00D-08 within 128 cycles.
 Requested convergence on MAX density matrix=1.00D-06.
 Requested convergence on             energy=1.00D-06.
 No special actions if energy rises.
 Integral accuracy reduced to 1.0D-05 until final iterations.
 Initial convergence to 1.0D-05 achieved.  Increase integral accuracy.
 SCF Done:  E(RHF) =  -2300.22236582     A.U. after   16 cycles
            NFock= 16  Conv=0.39D-08     -V/T= 2.0092
 Range of M.O.s used for correlation:     1   326
 NBasis=   326 NAE=   197 NBE=   197 NFC=     0 NFV=     0
 NROrb=    326 NOA=   197 NOB=   197 NVA=   129 NVB=   129
          Differentiating once with respect to magnetic field using GIAOs.
          Electric field/nuclear overlap derivatives assumed to be zero.
 FoFCou: FMM=F IPFlag=           0 FMFlag=      100000 FMFlg1=        2001
         NFxFlg=           0 DoJE=F BraDBF=F KetDBF=T FulRan=T
         wScrn=  0.000000 ICntrl=      6100 IOpCl=  0 I1Cent=           7 NGrid=         110
         NMat0=    1 NMatS0=      1 NMatT0=    0 NMatD0=    1 NMtDS0=    0 NMtDT0=    0
 Symmetry not used in FoFCou.
 FoFJK:  IHMeth= 1 ICntrl=    6127 DoSepK=F KAlg= 0 I1Cent=           0 FoldK=F
 IRaf=         1 NMat=       1 IRICut=       1 DoRegI=T DoRafI=F ISym2E= 0 IDoP0=0 IntGTp=1.
          There are     3 degrees of freedom in the 1st order CPHF.  IDoFFX=0 NUNeed=     3.
      3 vectors produced by pass  0 Test12= 8.47D-13 3.33D-08 XBig12= 1.80D+02 2.39D+00.
 AX will form     3 AO Fock derivatives at one time.
      3 vectors produced by pass  1 Test12= 8.47D-13 3.33D-08 XBig12= 7.72D-01 3.35D-01.
      3 vectors produced by pass  2 Test12= 8.47D-13 3.33D-08 XBig12= 1.85D-02 3.25D-02.
      3 vectors produced by pass  3 Test12= 8.47D-13 3.33D-08 XBig12= 4.77D-04 7.59D-03.
      3 vectors produced by pass  4 Test12= 8.47D-13 3.33D-08 XBig12= 2.03D-05 1.05D-03.
      3 vectors produced by pass  5 Test12= 8.47D-13 3.33D-08 XBig12= 3.61D-07 8.94D-05.
      3 vectors produced by pass  6 Test12= 8.47D-13 3.33D-08 XBig12= 1.09D-08 1.93D-05.
      3 vectors produced by pass  7 Test12= 8.47D-13 3.33D-08 XBig12= 3.86D-10 2.61D-06.
      3 vectors produced by pass  8 Test12= 8.47D-13 3.33D-08 XBig12= 7.02D-12 3.49D-07.
      2 vectors produced by pass  9 Test12= 8.47D-13 3.33D-08 XBig12= 1.32D-13 6.61D-08.
 InvSVY:  IOpt=1 It=  1 EMax= 5.33D-15
 Solved reduced A of dimension    29 with     3 vectors.
 Calculating GIAO nuclear magnetic shielding tensors.
 SCF GIAO Magnetic shielding tensor (ppm):
      1  C    Isotropic =   125.8089   Anisotropy =   148.4386
   XX=   143.4274   YX=    -9.6578   ZX=   -70.8718
   XY=   -16.9321   YY=    71.3770   ZY=   -48.0150
   XZ=   -59.9913   YZ=   -49.2254   ZZ=   162.6221
   Eigenvalues:    34.0030   118.6556   224.7679
      2  C    Isotropic =   120.8612   Anisotropy =   156.8952
   XX=   112.3296   YX=    26.5118   ZX=   -84.4172
   XY=    23.3424   YY=    98.2364   ZY=   -12.9949
   XZ=   -87.1244   YZ=   -13.2043   ZZ=   152.0176
   Eigenvalues:    41.6943    95.4313   225.4580
      3  C    Isotropic =   120.1242   Anisotropy =   151.1195
   XX=   139.0008   YX=    40.0107   ZX=   -58.6772
   XY=    40.2851   YY=    44.5747   ZY=    -7.2239
   XZ=   -50.0364   YZ=   -10.1831   ZZ=   176.7971
   Eigenvalues:    28.9118   110.5903   220.8705
      4  C    Isotropic =   133.6118   Anisotropy =   143.4654
   XX=   155.5895   YX=    -7.5436   ZX=   -65.2181
   XY=    -7.1172   YY=    84.7841   ZY=   -35.8165
   XZ=   -67.6718   YZ=   -48.7878   ZZ=   160.4619
   Eigenvalues:    51.2732   120.3068   229.2554
      5  C    Isotropic =   107.5853   Anisotropy =   129.8125
   XX=   113.6944   YX=    24.9035   ZX=   -72.6283
   XY=    11.1861   YY=    92.1143   ZY=   -10.8812
   XZ=   -77.2990   YZ=    -9.0156   ZZ=   116.9471
   Eigenvalues:    39.6325    88.9964   194.1269
      6  C    Isotropic =   117.1836   Anisotropy =   143.8190
   XX=   138.0307   YX=    11.6623   ZX=   -62.6522
   XY=    26.4777   YY=    52.7953   ZY=    -8.0549
   XZ=   -58.5360   YZ=    -7.1456   ZZ=   160.7248
   Eigenvalues:    48.3492    90.1386   213.0629
      7  N    Isotropic =   271.2922   Anisotropy =    81.5096
   XX=   265.6085   YX=   -10.6481   ZX=    29.5703
   XY=   -20.4026   YY=   269.2881   ZY=   -44.8808
   XZ=    18.1654   YZ=   -30.9666   ZZ=   278.9801
   Eigenvalues:   235.0655   253.1792   325.6320
      8  C    Isotropic =   198.7781   Anisotropy =    13.5026
   XX=   201.5498   YX=     1.7129   ZX=    -2.5024
   XY=     8.6648   YY=   198.3739   ZY=     5.0847
   XZ=     4.2075   YZ=     8.6227   ZZ=   196.4106
   Eigenvalues:   189.7411   198.8133   207.7798
      9  C    Isotropic =   179.7693   Anisotropy =    43.6980
   XX=   168.9176   YX=    19.5114   ZX=     8.5800
   XY=     5.8898   YY=   203.6797   ZY=     4.7291
   XZ=    23.3032   YZ=    -1.8108   ZZ=   166.7106
   Eigenvalues:   150.6753   179.7312   208.9013
     10  C    Isotropic =   189.2836   Anisotropy =    32.5351
   XX=   182.6149   YX=     2.3513   ZX=   -12.8782
   XY=    -1.6104   YY=   190.7147   ZY=    16.6558
   XZ=    -6.5938   YZ=    16.1887   ZZ=   194.5212
   Eigenvalues:   171.4565   185.4207   210.9737
     11  C    Isotropic =   212.7378   Anisotropy =    20.7599
   XX=   217.7006   YX=    -0.9971   ZX=   -13.2517
   XY=     6.4491   YY=   208.1986   ZY=    -0.8828
   XZ=    -8.1370   YZ=    -2.3890   ZZ=   212.3143
   Eigenvalues:   203.9401   207.6956   226.5777
     12  C    Isotropic =   214.6483   Anisotropy =    17.3563
   XX=   213.9047   YX=    -0.5600   ZX=    -5.2621
   XY=    -2.9140   YY=   218.7599   ZY=     8.8262
   XZ=    -4.5884   YZ=     9.1299   ZZ=   211.2803
   Eigenvalues:   204.1867   213.5391   226.2192
     13  C    Isotropic =   210.8931   Anisotropy =     7.6149
   XX=   213.3674   YX=     1.9440   ZX=    -1.5970
   XY=     3.5863   YY=   212.6419   ZY=    -1.6307
   XZ=     2.0053   YZ=    -2.6068   ZZ=   206.6700
   Eigenvalues:   205.8338   210.8758   215.9697
     14  N    Isotropic =   298.7312   Anisotropy =    57.3801
   XX=   264.6399   YX=     7.3766   ZX=   -34.8413
   XY=    18.7589   YY=   317.7895   ZY=    18.6999
   XZ=   -31.5741   YZ=    16.4741   ZZ=   313.7643
   Eigenvalues:   242.7122   316.4968   336.9846
     15  C    Isotropic =   202.0654   Anisotropy =    38.8630
   XX=   195.2322   YX=    13.9188   ZX=     2.7760
   XY=    14.5674   YY=   221.3146   ZY=     3.4387
   XZ=     3.6461   YZ=     2.1633   ZZ=   189.6495
   Eigenvalues:   187.3037   190.9185   227.9741
     16  C    Isotropic =   219.1892   Anisotropy =     7.9894
   XX=   212.1448   YX=     1.4283   ZX=    -3.7756
   XY=    -2.8544   YY=   222.6677   ZY=    -0.6237
   XZ=    -3.4466   YZ=    -2.0518   ZZ=   222.7550
   Eigenvalues:   210.9331   222.1190   224.5155
     17  C    Isotropic =   214.0146   Anisotropy =    21.5162
   XX=   209.8424   YX=     5.3486   ZX=    -0.8286
   XY=     7.7890   YY=   225.3179   ZY=     5.9478
   XZ=    -1.9390   YZ=     2.8274   ZZ=   206.8834
   Eigenvalues:   204.0119   209.6731   228.3587
     18  C    Isotropic =   209.4046   Anisotropy =    31.1554
   XX=   201.1360   YX=     6.5515   ZX=   -20.3651
   XY=     2.8072   YY=   212.9658   ZY=     8.2141
   XZ=   -17.1499   YZ=    13.9482   ZZ=   214.1121
   Eigenvalues:   184.0333   214.0056   230.1749
     19  C    Isotropic =   199.8837   Anisotropy =    40.8537
   XX=   187.4339   YX=    13.9654   ZX=   -11.3653
   XY=    15.1416   YY=   205.5731   ZY=   -14.5822
   XZ=   -17.0671   YZ=    -6.5725   ZZ=   206.6440
   Eigenvalues:   176.9934   195.5382   227.1195
     20  C    Isotropic =   212.2753   Anisotropy =    22.1768
   XX=   223.6420   YX=     5.6134   ZX=     6.6359
   XY=     5.5996   YY=   212.4424   ZY=    -2.5869
   XZ=     7.5316   YZ=    -4.7683   ZZ=   200.7416
   Eigenvalues:   196.9883   212.7779   227.0599
     21  C    Isotropic =   208.1227   Anisotropy =    12.5106
   XX=   216.1691   YX=     2.5104   ZX=     0.1977
   XY=    -6.1193   YY=   204.9542   ZY=    -3.6768
   XZ=    -1.1333   YZ=    -6.7168   ZZ=   203.2448
   Eigenvalues:   198.6990   209.2060   216.4631
     22  C    Isotropic =    97.0092   Anisotropy =    98.8580
   XX=    36.6053   YX=   -79.2086   ZX=    14.7678
   XY=   -99.8013   YY=    99.3978   ZY=    11.7196
   XZ=     5.9129   YZ=     4.5441   ZZ=   155.0243
   Eigenvalues:   -27.7945   155.9074   162.9145
     23  O    Isotropic =  -136.4320   Anisotropy =   887.3430
   XX=  -260.4924   YX=     9.3611   ZX=   261.2162
   XY=     1.0463   YY=  -376.7697   ZY=  -338.3744
   XZ=   251.8199   YZ=  -336.1148   ZZ=   227.9661
   Eigenvalues:  -573.8917  -290.5343   455.1300
     24  O    Isotropic =   285.1581   Anisotropy =   138.1515
   XX=   178.0963   YX=   -14.1483   ZX=    73.7928
   XY=   118.6054   YY=   361.0996   ZY=   -43.5991
   XZ=   107.2661   YZ=    10.0958   ZZ=   316.2782
   Eigenvalues:   121.0357   357.1794   377.2591
     25  C    Isotropic =   197.4658   Anisotropy =    57.8048
   XX=   229.4105   YX=     7.9302   ZX=   -16.2966
   XY=     8.4692   YY=   178.7408   ZY=    -3.0266
   XZ=   -16.3905   YZ=    -2.3018   ZZ=   184.2461
   Eigenvalues:   177.4426   178.9524   236.0024
     26  C    Isotropic =   209.8879   Anisotropy =    41.3937
   XX=   202.6173   YX=     4.6433   ZX=     8.4177
   XY=     7.0760   YY=   207.4220   ZY=    20.1699
   XZ=     8.0381   YZ=    20.0919   ZZ=   219.6242
   Eigenvalues:   192.4830   199.6969   237.4836
     27  C    Isotropic =   206.5290   Anisotropy =    14.8629
   XX=   216.3729   YX=    -0.3190   ZX=     1.2780
   XY=    -0.5500   YY=   200.6850   ZY=    -5.4967
   XZ=     0.0877   YZ=    -3.8862   ZZ=   202.5291
   Eigenvalues:   196.8254   206.3240   216.4376
     28  C    Isotropic =   119.4349   Anisotropy =   157.8723
   XX=    89.7727   YX=    -9.6122   ZX=    87.3418
   XY=    -7.4637   YY=    92.6112   ZY=     4.2064
   XZ=    74.8665   YZ=     4.4339   ZZ=   175.9206
   Eigenvalues:    39.3053    94.3162   224.6831
     29  C    Isotropic =   122.1114   Anisotropy =   157.1941
   XX=   120.1380   YX=    35.8253   ZX=    72.6810
   XY=    36.1751   YY=    60.5517   ZY=   -17.9844
   XZ=    59.2393   YZ=    -8.6865   ZZ=   185.6443
   Eigenvalues:    30.9462   108.4804   226.9074
     30  C    Isotropic =   119.1554   Anisotropy =   151.2058
   XX=   132.3984   YX=   -26.9099   ZX=    57.9636
   XY=   -23.9196   YY=    37.8245   ZY=    14.4991
   XZ=    48.8915   YZ=     7.5208   ZZ=   187.2433
   Eigenvalues:    27.3579   110.1490   219.9593
     31  C    Isotropic =   134.3495   Anisotropy =   141.2743
   XX=   137.2927   YX=    31.9596   ZX=    60.3864
   XY=    24.5186   YY=    78.7163   ZY=   -14.7123
   XZ=    62.5793   YZ=   -17.4367   ZZ=   187.0396
   Eigenvalues:    53.7446   120.7716   228.5324
     32  C    Isotropic =   109.7648   Anisotropy =   125.8173
   XX=    89.1560   YX=    -1.2735   ZX=    65.8856
   XY=     1.0989   YY=    93.4643   ZY=     1.6297
   XZ=    72.7746   YZ=    18.1645   ZZ=   146.6742
   Eigenvalues:    42.2460    93.4055   193.6430
     33  C    Isotropic =   119.7830   Anisotropy =   135.8798
   XX=   139.9452   YX=    -6.5179   ZX=    53.2331
   XY=    -7.6491   YY=    53.9191   ZY=    14.6314
   XZ=    59.0829   YZ=     4.6770   ZZ=   165.4848
   Eigenvalues:    50.8407    98.1388   210.3696
     34  N    Isotropic =   275.5079   Anisotropy =    81.8917
   XX=   302.6686   YX=    26.7527   ZX=   -12.2660
   XY=    45.2598   YY=   270.7369   ZY=    -7.7918
   XZ=   -21.5130   YZ=    -4.6622   ZZ=   253.1182
   Eigenvalues:   244.2174   252.2040   330.1024
     35  C    Isotropic =   195.6904   Anisotropy =    13.6046
   XX=   194.9560   YX=    -8.0671   ZX=    -2.2518
   XY=    -6.3647   YY=   197.0791   ZY=     6.7637
   XZ=    -1.8811   YZ=    -0.4216   ZZ=   195.0362
   Eigenvalues:   188.6760   193.6351   204.7602
     36  C    Isotropic =   181.3837   Anisotropy =    44.5184
   XX=   177.1023   YX=    -0.6772   ZX=   -16.7826
   XY=    -2.6377   YY=   207.4240   ZY=     7.1735
   XZ=    -4.1115   YZ=    18.0034   ZZ=   159.6247
   Eigenvalues:   152.5918   180.4966   211.0626
     37  C    Isotropic =   180.2205   Anisotropy =    47.5170
   XX=   186.1384   YX=   -17.4338   ZX=    18.8915
   XY=   -23.8554   YY=   181.9985   ZY=    -7.8669
   XZ=    11.4865   YZ=    -8.0981   ZZ=   172.5246
   Eigenvalues:   160.2939   168.4691   211.8985
     38  C    Isotropic =   213.8078   Anisotropy =    19.4644
   XX=   210.4229   YX=     0.3035   ZX=     8.7633
   XY=    -1.4558   YY=   210.6612   ZY=     5.7397
   XZ=    11.3298   YZ=    -0.8172   ZZ=   220.3391
   Eigenvalues:   203.7081   210.9311   226.7840
     39  C    Isotropic =   212.4899   Anisotropy =    21.9993
   XX=   210.1639   YX=    -7.6445   ZX=     7.4490
   XY=    -9.3891   YY=   215.9367   ZY=    -6.9064
   XZ=     7.0145   YZ=    -4.6418   ZZ=   211.3691
   Eigenvalues:   202.6820   207.6316   227.1561
     40  C    Isotropic =   211.9998   Anisotropy =     9.5797
   XX=   211.1975   YX=     2.9917   ZX=     0.6921
   XY=     2.1142   YY=   213.8827   ZY=     3.9290
   XZ=     1.7362   YZ=     5.4303   ZZ=   210.9193
   Eigenvalues:   207.3997   210.2134   218.3863
     41  N    Isotropic =   235.0388   Anisotropy =    27.6850
   XX=   250.3074   YX=   -17.5070   ZX=    -9.9992
   XY=     4.2895   YY=   222.2326   ZY=   -12.1449
   XZ=    -4.4695   YZ=    -0.0617   ZZ=   232.5765
   Eigenvalues:   216.9015   234.7195   253.4955
     42  C    Isotropic =   194.9131   Anisotropy =    48.5306
   XX=   182.7398   YX=    -0.5006   ZX=    -5.4507
   XY=     8.0656   YY=   222.9374   ZY=    17.6425
   XZ=    -8.5253   YZ=    11.0266   ZZ=   179.0622
   Eigenvalues:   170.0214   187.4512   227.2669
     43  C    Isotropic =   222.9838   Anisotropy =    11.5055
   XX=   229.6433   YX=    -1.5936   ZX=     2.7777
   XY=    -2.2037   YY=   224.5655   ZY=    -1.3045
   XZ=     1.9344   YZ=    -0.0991   ZZ=   214.7427
   Eigenvalues:   214.3627   223.9347   230.6542
     44  C    Isotropic =   215.7664   Anisotropy =    18.7511
   XX=   210.9688   YX=    -2.4914   ZX=     1.0258
   XY=    -6.9392   YY=   225.3490   ZY=     6.2178
   XZ=    -1.6045   YZ=     4.2483   ZZ=   210.9815
   Eigenvalues:   208.3452   210.6869   228.2672
     45  C    Isotropic =   211.0539   Anisotropy =    37.4871
   XX=   205.5247   YX=    -6.4441   ZX=    17.3309
   XY=    -7.6233   YY=   216.8272   ZY=    -7.9886
   XZ=    18.3146   YZ=   -16.1030   ZZ=   210.8098
   Eigenvalues:   189.8531   207.2633   236.0453
     46  C    Isotropic =   191.9383   Anisotropy =    50.0019
   XX=   171.1244   YX=    -9.9990   ZX=     3.9828
   XY=   -17.8425   YY=   183.0062   ZY=    14.8529
   XZ=     9.0140   YZ=     9.3372   ZZ=   221.6842
   Eigenvalues:   159.5287   191.0131   225.2729
     47  C    Isotropic =   212.5300   Anisotropy =    21.5307
   XX=   205.3059   YX=     3.4557   ZX=    -8.2910
   XY=     1.7685   YY=   212.3693   ZY=     8.1812
   XZ=    -8.9888   YZ=     8.0286   ZZ=   219.9147
   Eigenvalues:   198.5699   212.1363   226.8837
     48  C    Isotropic =   209.5282   Anisotropy =     9.2841
   XX=   206.2197   YX=     6.6655   ZX=     0.2267
   XY=     6.4035   YY=   206.8312   ZY=    -4.6685
   XZ=    -1.2368   YZ=     3.7026   ZZ=   215.5337
   Eigenvalues:   199.9837   212.8833   215.7176
     49  C    Isotropic =    96.1010   Anisotropy =    98.6559
   XX=   150.1505   YX=    21.1794   ZX=    30.6133
   XY=    15.1206   YY=   105.6054   ZY=   -93.9568
   XZ=    18.9645   YZ=   -75.8850   ZZ=    32.5473
   Eigenvalues:   -28.6348   155.0662   161.8717
     50  O    Isotropic =  -133.6394   Anisotropy =   887.8006
   XX=   172.2627   YX=   423.4979   ZX=  -151.6541
   XY=   431.6688   YY=  -246.4327   ZY=    23.8246
   XZ=  -174.4253   YZ=    38.5032   ZZ=  -326.7482
   Eigenvalues:  -569.0195  -290.1264   458.2277
     51  O    Isotropic =   283.1959   Anisotropy =   139.2612
   XX=   340.5634   YX=    -8.6273   ZX=  -101.3979
   XY=    21.0111   YY=   363.0163   ZY=   112.3757
   XZ=   -41.3350   YZ=   -23.2059   ZZ=   146.0080
   Eigenvalues:   114.7256   358.8255   376.0367
     52  C    Isotropic =   197.2141   Anisotropy =    57.4494
   XX=   179.6022   YX=     0.9690   ZX=     5.7182
   XY=     1.7003   YY=   179.0310   ZY=    10.4947
   XZ=     5.4036   YZ=    10.2314   ZZ=   233.0092
   Eigenvalues:   177.0646   179.0640   235.5137
     53  C    Isotropic =   209.9532   Anisotropy =    42.2148
   XX=   220.3684   YX=   -21.5061   ZX=    -2.3902
   XY=   -22.1795   YY=   210.6908   ZY=     1.9877
   XZ=    -3.4644   YZ=    -0.4554   ZZ=   198.8003
   Eigenvalues:   192.8915   198.8716   238.0963
     54  O    Isotropic =     2.6588   Anisotropy =   523.4377
   XX=   234.8739   YX=   122.5813   ZX=  -170.8900
   XY=   143.2247   YY=  -157.2725   ZY=   -65.5992
   XZ=  -166.6008   YZ=   -53.8294   ZZ=   -69.6249
   Eigenvalues:  -198.9937  -144.6471   351.6173
     55  H    Isotropic =    25.6319   Anisotropy =    12.0716
   XX=    29.2425   YX=    -4.3247   ZX=     2.6149
   XY=    -4.1458   YY=    26.5361   ZY=    -2.5802
   XZ=     3.7954   YZ=    -2.5751   ZZ=    21.1171
   Eigenvalues:    19.7643    23.4517    33.6796
     56  H    Isotropic =    25.8941   Anisotropy =     6.8339
   XX=    27.1443   YX=     1.7318   ZX=     3.4363
   XY=     0.9567   YY=    27.9217   ZY=     0.4940
   XZ=     4.6010   YZ=     1.0719   ZZ=    22.6162
   Eigenvalues:    20.2677    26.9645    30.4500
     57  H    Isotropic =    26.6518   Anisotropy =     7.7397
   XX=    25.8859   YX=    -1.2178   ZX=     4.2083
   XY=    -1.0497   YY=    31.0593   ZY=    -0.6560
   XZ=     4.3493   YZ=    -1.2042   ZZ=    23.0103
   Eigenvalues:    19.9334    28.2104    31.8117
     58  H    Isotropic =    31.4818   Anisotropy =    13.1786
   XX=    39.3411   YX=     0.1249   ZX=     3.6570
   XY=    -1.2159   YY=    29.5818   ZY=    -0.2660
   XZ=     3.4690   YZ=    -2.1137   ZZ=    25.5227
   Eigenvalues:    24.4506    29.7274    40.2676
     59  H    Isotropic =    32.3591   Anisotropy =    12.6010
   XX=    27.7947   YX=     3.2967   ZX=    -0.6354
   XY=     2.6413   YY=    29.9872   ZY=     3.8915
   XZ=     1.4199   YZ=     3.5863   ZZ=    39.2954
   Eigenvalues:    25.4558    30.8618    40.7597
     60  H    Isotropic =    33.4030   Anisotropy =     8.7270
   XX=    36.1862   YX=    -3.1659   ZX=    -3.5937
   XY=    -4.2364   YY=    34.7011   ZY=    -0.3972
   XZ=     0.5716   YZ=    -2.8227   ZZ=    29.3217
   Eigenvalues:    27.9977    32.9903    39.2210
     61  H    Isotropic =    32.4901   Anisotropy =    13.8324
   XX=    28.1961   YX=     1.5993   ZX=    -2.8720
   XY=     1.7044   YY=    29.3938   ZY=    -3.3944
   XZ=    -2.2654   YZ=    -4.0456   ZZ=    39.8805
   Eigenvalues:    27.0377    28.7209    41.7117
     62  H    Isotropic =    32.6786   Anisotropy =    17.6857
   XX=    44.4630   YX=     0.3876   ZX=    -0.3444
   XY=    -0.2289   YY=    27.7582   ZY=     1.1373
   XZ=     1.0000   YZ=    -0.7262   ZZ=    25.8148
   Eigenvalues:    25.7878    27.7790    44.4691
     63  H    Isotropic =    31.9739   Anisotropy =    11.9333
   XX=    37.1300   YX=     0.8630   ZX=     4.8016
   XY=     1.7242   YY=    28.7379   ZY=     1.4850
   XZ=     4.9870   YZ=     1.4670   ZZ=    30.0537
   Eigenvalues:    27.1531    28.8391    39.9294
     64  H    Isotropic =    31.7573   Anisotropy =    15.0824
   XX=    27.0781   YX=    -1.4353   ZX=    -4.0829
   XY=    -2.2366   YY=    34.1782   ZY=     6.5142
   XZ=    -3.8992   YZ=     6.5952   ZZ=    34.0155
   Eigenvalues:    25.0373    28.4223    41.8122
     65  H    Isotropic =    32.3925   Anisotropy =    15.7709
   XX=    30.1005   YX=     6.0103   ZX=     0.1361
   XY=     5.3875   YY=    40.1647   ZY=     1.7353
   XZ=     0.2970   YZ=     1.6987   ZZ=    26.9124
   Eigenvalues:    26.4942    27.7769    42.9064
     66  H    Isotropic =    31.8736   Anisotropy =    14.0772
   XX=    34.2293   YX=    -6.5326   ZX=     1.5242
   XY=    -6.8598   YY=    34.5601   ZY=    -0.5305
   XZ=     1.8331   YZ=    -0.5037   ZZ=    26.8313
   Eigenvalues:    26.1997    28.1626    41.2584
     67  H    Isotropic =    32.2335   Anisotropy =    15.6887
   XX=    42.4982   YX=     1.5997   ZX=    -1.0789
   XY=     1.4178   YY=    29.1712   ZY=     1.1455
   XZ=    -0.4492   YZ=     0.3949   ZZ=    25.0312
   Eigenvalues:    24.8324    29.1756    42.6926
     68  H    Isotropic =    32.3666   Anisotropy =    13.8746
   XX=    26.9188   YX=     0.9767   ZX=     0.1080
   XY=     1.0697   YY=    34.7132   ZY=    -6.3390
   XZ=     0.3016   YZ=    -6.6489   ZZ=    35.4679
   Eigenvalues:    26.5196    28.9640    41.6164
     69  H    Isotropic =    32.4696   Anisotropy =    12.9660
   XX=    40.7900   YX=    -0.9151   ZX=     1.4403
   XY=    -0.1511   YY=    25.5224   ZY=     0.9078
   XZ=     2.1304   YZ=     1.8307   ZZ=    31.0964
   Eigenvalues:    25.1482    31.1470    41.1136
     70  H    Isotropic =    32.9395   Anisotropy =    11.4710
   XX=    30.5197   YX=     0.8199   ZX=    -4.3967
   XY=     3.2684   YY=    34.6481   ZY=    -5.2125
   XZ=    -5.0996   YZ=    -3.0460   ZZ=    33.6507
   Eigenvalues:    26.9819    31.2497    40.5868
     71  H    Isotropic =    32.1318   Anisotropy =    10.7190
   XX=    30.5389   YX=    -1.9548   ZX=     3.8514
   XY=    -1.5949   YY=    28.9873   ZY=    -2.0008
   XZ=     4.4984   YZ=    -0.3589   ZZ=    36.8692
   Eigenvalues:    27.5066    29.6110    39.2778
     72  H    Isotropic =    31.9466   Anisotropy =    16.2387
   XX=    31.9792   YX=    -2.7884   ZX=    -7.0748
   XY=    -1.3894   YY=    28.6436   ZY=     3.6236
   XZ=    -7.7354   YZ=     5.1661   ZZ=    35.2169
   Eigenvalues:    25.3427    27.7247    42.7724
     73  H    Isotropic =    32.0896   Anisotropy =    14.8538
   XX=    28.7914   YX=    -0.7441   ZX=     4.5731
   XY=    -0.2183   YY=    31.9507   ZY=    -6.5043
   XZ=     4.4567   YZ=    -7.2136   ZZ=    35.5267
   Eigenvalues:    24.7992    29.4775    41.9921
     74  H    Isotropic =    30.3182   Anisotropy =    11.0212
   XX=    33.5764   YX=    -4.9159   ZX=    -0.2985
   XY=    -4.0817   YY=    31.7354   ZY=     3.4722
   XZ=     0.2815   YZ=     3.3771   ZZ=    25.6428
   Eigenvalues:    23.6914    29.5976    37.6656
     75  H    Isotropic =    31.3310   Anisotropy =    12.4998
   XX=    29.5652   YX=     1.4069   ZX=     5.2135
   XY=     1.9054   YY=    27.6043   ZY=     0.8835
   XZ=     4.6829   YZ=     1.9242   ZZ=    36.8235
   Eigenvalues:    26.3261    28.0027    39.6642
     76  H    Isotropic =    30.5771   Anisotropy =     8.0447
   XX=    32.0463   YX=     1.0924   ZX=    -2.3212
   XY=     1.4984   YY=    25.7610   ZY=     0.4098
   XZ=    -3.1647   YZ=    -0.3936   ZZ=    33.9241
   Eigenvalues:    25.4650    30.3262    35.9403
     77  H    Isotropic =    30.5386   Anisotropy =    12.0118
   XX=    32.8974   YX=     5.4059   ZX=     0.8916
   XY=     4.9549   YY=    33.4595   ZY=     1.7403
   XZ=     0.3333   YZ=     1.3536   ZZ=    25.2589
   Eigenvalues:    24.9548    28.1146    38.5464
     78  H    Isotropic =    30.5192   Anisotropy =    12.1570
   XX=    36.6229   YX=    -2.9283   ZX=     3.1342
   XY=    -3.3626   YY=    28.4724   ZY=    -1.7938
   XZ=     2.9219   YZ=    -1.2496   ZZ=    26.4622
   Eigenvalues:    25.4340    27.4997    38.6238
     79  H    Isotropic =    32.0259   Anisotropy =    10.5637
   XX=    30.9370   YX=    -1.4039   ZX=    -3.8152
   XY=    -1.4189   YY=    31.7444   ZY=     5.2454
   XZ=    -1.4195   YZ=     5.5402   ZZ=    33.3965
   Eigenvalues:    26.9885    30.0209    39.0684
     80  H    Isotropic =    30.7647   Anisotropy =    14.9692
   XX=    29.4880   YX=     5.6829   ZX=     1.9850
   XY=     5.8358   YY=    37.3161   ZY=     1.3950
   XZ=     2.9068   YZ=     1.4259   ZZ=    25.4901
   Eigenvalues:    24.1516    27.3984    40.7442
     81  H    Isotropic =    30.9304   Anisotropy =    11.1436
   XX=    30.8013   YX=    -0.9942   ZX=     6.2519
   XY=    -0.5263   YY=    29.9561   ZY=     1.7549
   XZ=     7.4517   YZ=     1.5743   ZZ=    32.0336
   Eigenvalues:    24.0544    30.3772    38.3594
     82  H    Isotropic =    29.9773   Anisotropy =     7.9246
   XX=    26.2519   YX=    -0.3168   ZX=     0.0455
   XY=    -0.6754   YY=    29.5252   ZY=     1.9928
   XZ=    -0.6738   YZ=     2.9718   ZZ=    34.1548
   Eigenvalues:    26.1779    28.4936    35.2604
     83  H    Isotropic =    29.9425   Anisotropy =    12.5401
   XX=    27.3080   YX=     0.0525   ZX=    -0.1222
   XY=    -0.2688   YY=    35.9884   ZY=    -4.6894
   XZ=     0.2736   YZ=    -5.7450   ZZ=    26.5311
   Eigenvalues:    24.2183    27.3067    38.3026
     84  H    Isotropic =    24.7539   Anisotropy =    14.1318
   XX=    29.3835   YX=     4.9064   ZX=    -2.9596
   XY=     3.9496   YY=    26.1468   ZY=    -3.1319
   XZ=    -4.6994   YZ=    -3.7535   ZZ=    18.7313
   Eigenvalues:    16.9810    23.1056    34.1751
     85  H    Isotropic =    25.6959   Anisotropy =     6.5949
   XX=    27.8990   YX=    -2.1407   ZX=    -2.6834
   XY=    -1.1657   YY=    27.5990   ZY=    -0.1359
   XZ=    -3.4469   YZ=     0.1043   ZZ=    21.5897
   Eigenvalues:    20.2884    26.7068    30.0925
     86  H    Isotropic =    26.6676   Anisotropy =     7.9519
   XX=    27.3132   YX=     1.5846   ZX=    -3.3774
   XY=     1.4857   YY=    30.9922   ZY=    -0.5806
   XZ=    -4.0494   YZ=    -0.6793   ZZ=    21.6973
   Eigenvalues:    19.8484    28.1854    31.9688
     87  H    Isotropic =    30.6822   Anisotropy =     6.4219
   XX=    30.4994   YX=     0.6332   ZX=    -1.1674
   XY=     0.7890   YY=    28.3140   ZY=    -2.2927
   XZ=    -3.6296   YZ=    -0.3414   ZZ=    33.2330
   Eigenvalues:    27.9756    29.1074    34.9634
     88  H    Isotropic =    32.1339   Anisotropy =    14.1982
   XX=    38.1061   YX=    -5.4484   ZX=     3.0422
   XY=    -5.3772   YY=    31.4854   ZY=     1.2310
   XZ=     4.5282   YZ=     1.9075   ZZ=    26.8102
   Eigenvalues:    24.0684    30.7339    41.5993
     89  H    Isotropic =    32.7820   Anisotropy =     8.8192
   XX=    29.6167   YX=     3.2167   ZX=     0.0907
   XY=     1.6976   YY=    33.6420   ZY=    -5.0713
   XZ=     2.7147   YZ=    -3.3349   ZZ=    35.0874
   Eigenvalues:    27.0527    32.6318    38.6615
     90  H    Isotropic =    32.4284   Anisotropy =    13.3435
   XX=    27.3466   YX=    -0.2868   ZX=     1.1051
   XY=    -0.8756   YY=    28.7681   ZY=     0.2135
   XZ=     1.3833   YZ=     1.3547   ZZ=    41.1705
   Eigenvalues:    26.9934    28.9678    41.3241
     91  H    Isotropic =    32.2496   Anisotropy =    15.6288
   XX=    39.8944   YX=     2.8435   ZX=     5.5279
   XY=     2.4951   YY=    29.3496   ZY=     1.5895
   XZ=     5.3974   YZ=     1.6679   ZZ=    27.5049
   Eigenvalues:    25.3426    28.7375    42.6689
     92  H    Isotropic =    30.7110   Anisotropy =    11.7807
   XX=    31.5242   YX=    -0.1582   ZX=    -4.4131
   XY=    -2.0367   YY=    28.7291   ZY=     5.6944
   XZ=    -5.1321   YZ=     4.3663   ZZ=    31.8797
   Eigenvalues:    24.3342    29.2340    38.5648
     93  H    Isotropic =    30.8464   Anisotropy =    13.1036
   XX=    35.1465   YX=    -3.4844   ZX=     3.6140
   XY=    -5.1993   YY=    33.2546   ZY=    -0.9070
   XZ=     4.1369   YZ=    -1.5161   ZZ=    24.1381
   Eigenvalues:    22.9079    30.0492    39.5822
     94  H    Isotropic =    32.2821   Anisotropy =    17.8491
   XX=    28.0740   YX=     0.1793   ZX=     0.8611
   XY=     0.3221   YY=    43.2101   ZY=     4.1595
   XZ=     0.8516   YZ=     4.2921   ZZ=    25.5622
   Eigenvalues:    24.4350    28.2298    44.1815
     95  H    Isotropic =    32.5389   Anisotropy =     9.6695
   XX=    29.0085   YX=     1.0260   ZX=    -2.6958
   XY=     0.6311   YY=    33.1322   ZY=    -3.5111
   XZ=    -2.7310   YZ=    -4.0455   ZZ=    35.4761
   Eigenvalues:    27.9447    30.6868    38.9853
     96  H    Isotropic =    32.4641   Anisotropy =    13.0121
   XX=    27.5986   YX=    -0.6411   ZX=     0.6556
   XY=    -0.9299   YY=    30.2905   ZY=     4.1970
   XZ=     0.5419   YZ=     4.2111   ZZ=    39.5032
   Eigenvalues:    27.0383    29.2152    41.1388
     97  H    Isotropic =    32.4005   Anisotropy =    15.2357
   XX=    37.4953   YX=     6.1469   ZX=     2.5248
   XY=     5.7809   YY=    34.0093   ZY=     2.5470
   XZ=     1.8109   YZ=     2.1946   ZZ=    25.6968
   Eigenvalues:    25.0295    29.6143    42.5576
     98  H    Isotropic =    32.1538   Anisotropy =    14.7326
   XX=    40.2595   YX=     2.7612   ZX=     3.3359
   XY=     5.1116   YY=    30.5373   ZY=    -0.2773
   XZ=     2.7168   YZ=    -3.3238   ZZ=    25.6646
   Eigenvalues:    23.9629    30.5229    41.9755
     99  H    Isotropic =    33.0418   Anisotropy =    10.4505
   XX=    33.3458   YX=    -2.7507   ZX=    -2.1636
   XY=    -1.0195   YY=    27.4707   ZY=     2.9246
   XZ=    -2.4150   YZ=     2.4023   ZZ=    38.3090
   Eigenvalues:    26.5716    32.5451    40.0088
    100  H    Isotropic =    31.5071   Anisotropy =     7.4348
   XX=    31.2283   YX=     1.0992   ZX=    -1.8028
   XY=     1.6876   YY=    30.0640   ZY=    -2.8361
   XZ=    -1.8143   YZ=    -4.1343   ZZ=    33.2292
   Eigenvalues:    27.8055    30.2523    36.4636
    101  H    Isotropic =    31.1139   Anisotropy =    16.0130
   XX=    38.0246   YX=    -3.5150   ZX=     4.4880
   XY=    -3.2607   YY=    26.9882   ZY=    -1.5547
   XZ=     7.1591   YZ=    -2.4306   ZZ=    28.3289
   Eigenvalues:    25.3800    26.1725    41.7893
    102  H    Isotropic =    31.6308   Anisotropy =     8.8354
   XX=    28.6842   YX=    -2.1598   ZX=     0.1173
   XY=    -2.8402   YY=    32.8925   ZY=    -3.3785
   XZ=    -0.3986   YZ=    -4.8207   ZZ=    33.3157
   Eigenvalues:    26.7854    30.5860    37.5211
    103  H    Isotropic =    32.1816   Anisotropy =    15.0708
   XX=    38.2467   YX=     6.4444   ZX=    -2.2633
   XY=     5.9883   YY=    31.9005   ZY=     1.3664
   XZ=    -2.9457   YZ=     0.8272   ZZ=    26.3976
   Eigenvalues:    24.6923    29.6237    42.2288
    104  H    Isotropic =    31.1612   Anisotropy =    13.1200
   XX=    38.7740   YX=    -3.1640   ZX=    -2.2959
   XY=    -1.6811   YY=    27.7705   ZY=     2.2006
   XZ=    -2.7287   YZ=     1.4201   ZZ=    26.9390
   Eigenvalues:    25.4767    28.0990    39.9078
    105  H    Isotropic =    30.5911   Anisotropy =    11.6294
   XX=    27.7317   YX=     1.3889   ZX=    -4.0922
   XY=     2.1481   YY=    29.2315   ZY=    -3.4592
   XZ=    -4.5266   YZ=    -3.0369   ZZ=    34.8102
   Eigenvalues:    25.6755    27.7538    38.3441
    106  H    Isotropic =    30.5317   Anisotropy =    12.2519
   XX=    27.3566   YX=    -3.5956   ZX=    -2.5946
   XY=    -3.7335   YY=    32.5884   ZY=     4.2623
   XZ=    -3.4008   YZ=     4.9061   ZZ=    31.6500
   Eigenvalues:    25.3639    27.5315    38.6996
    107  H    Isotropic =    30.6973   Anisotropy =     7.3793
   XX=    33.4471   YX=     1.2858   ZX=     2.6558
   XY=     0.6414   YY=    26.1589   ZY=     2.0801
   XZ=     1.6480   YZ=     2.0087   ZZ=    32.4860
   Eigenvalues:    25.5419    30.9332    35.6168
    108  H    Isotropic =    30.9640   Anisotropy =    11.0028
   XX=    35.7114   YX=    -1.4531   ZX=    -5.7358
   XY=    -1.9571   YY=    30.4318   ZY=    -0.6668
   XZ=    -4.7109   YZ=    -1.0039   ZZ=    26.7489
   Eigenvalues:    24.0057    30.5872    38.2992
    109  H    Isotropic =    30.7180   Anisotropy =    14.4668
   XX=    27.4001   YX=    -2.0467   ZX=    -2.7667
   XY=    -2.0064   YY=    37.2907   ZY=     5.5152
   XZ=    -2.1367   YZ=     5.4245   ZZ=    27.4632
   Eigenvalues:    24.2599    27.5316    40.3625
    110  H    Isotropic =    31.9080   Anisotropy =    12.1992
   XX=    31.6807   YX=    -5.0052   ZX=     2.5960
   XY=    -4.8475   YY=    32.8015   ZY=    -3.4665
   XZ=     4.4776   YZ=    -3.6198   ZZ=    31.2417
   Eigenvalues:    27.2313    28.4519    40.0408
 End of Minotr F.D. properties file   721 does not exist.
 End of Minotr F.D. properties file   722 does not exist.
 End of Minotr F.D. properties file   788 does not exist.
 Hyperfine terms turned off by default for NAtoms > 100.

 **********************************************************************

            Population analysis using the SCF Density.

 **********************************************************************

 Orbital symmetries:
       Occupied  (A) (A) (A) (A) (A) (A) (A) (A) (A) (A) (A) (A)
                 (A) (A) (A) (A) (A) (A) (A) (A) (A) (A) (A) (A)
                 (A) (A) (A) (A) (A) (A) (A) (A) (A) (A) (A) (A)
                 (A) (A) (A) (A) (A) (A) (A) (A) (A) (A) (A) (A)
                 (A) (A) (A) (A) (A) (A) (A) (A) (A) (A) (A) (A)
                 (A) (A) (A) (A) (A) (A) (A) (A) (A) (A) (A) (A)
                 (A) (A) (A) (A) (A) (A) (A) (A) (A) (A) (A) (A)
                 (A) (A) (A) (A) (A) (A) (A) (A) (A) (A) (A) (A)
                 (A) (A) (A) (A) (A) (A) (A) (A) (A) (A) (A) (A)
                 (A) (A) (A) (A) (A) (A) (A) (A) (A) (A) (A) (A)
                 (A) (A) (A) (A) (A) (A) (A) (A) (A) (A) (A) (A)
                 (A) (A) (A) (A) (A) (A) (A) (A) (A) (A) (A) (A)
                 (A) (A) (A) (A) (A) (A) (A) (A) (A) (A) (A) (A)
                 (A) (A) (A) (A) (A) (A) (A) (A) (A) (A) (A) (A)
                 (A) (A) (A) (A) (A) (A) (A) (A) (A) (A) (A) (A)
                 (A) (A) (A) (A) (A) (A) (A) (A) (A) (A) (A) (A)
                 (A) (A) (A) (A) (A)
       Virtual   (A) (A) (A) (A) (A) (A) (A) (A) (A) (A) (A) (A)
                 (A) (A) (A) (A) (A) (A) (A) (A) (A) (A) (A) (A)
                 (A) (A) (A) (A) (A) (A) (A) (A) (A) (A) (A) (A)
                 (A) (A) (A) (A) (A) (A) (A) (A) (A) (A) (A) (A)
                 (A) (A) (A) (A) (A) (A) (A) (A) (A) (A) (A) (A)
                 (A) (A) (A) (A) (A) (A) (A) (A) (A) (A) (A) (A)
                 (A) (A) (A) (A) (A) (A) (A) (A) (A) (A) (A) (A)
                 (A) (A) (A) (A) (A) (A) (A) (A) (A) (A) (A) (A)
                 (A) (A) (A) (A) (A) (A) (A) (A) (A) (A) (A) (A)
                 (A) (A) (A) (A) (A) (A) (A) (A) (A) (A) (A) (A)
                 (A) (A) (A) (A) (A) (A) (A) (A) (A)
 The electronic state is 1-A.
 Alpha  occ. eigenvalues --  -20.31442 -20.29179 -20.25326 -20.23153 -19.92286
 Alpha  occ. eigenvalues --  -15.48216 -15.33926 -15.32327 -15.28607 -11.17367
 Alpha  occ. eigenvalues --  -11.15011 -11.11121 -11.10341 -11.09689 -11.09445
 Alpha  occ. eigenvalues --  -11.09431 -11.09109 -11.08313 -11.08002 -11.07541
 Alpha  occ. eigenvalues --  -11.07357 -11.07141 -11.06823 -11.06463 -11.06040
 Alpha  occ. eigenvalues --  -11.05820 -11.05514 -11.05279 -11.05269 -11.05161
 Alpha  occ. eigenvalues --  -11.05128 -11.04997 -11.04799 -11.04732 -11.04383
 Alpha  occ. eigenvalues --  -11.04106 -11.03694 -11.03639 -11.02470 -11.02453
 Alpha  occ. eigenvalues --  -11.02436 -11.02428 -11.02414 -11.02327 -11.01551
 Alpha  occ. eigenvalues --  -11.01488 -11.01339 -11.01076 -11.01064 -11.01060
 Alpha  occ. eigenvalues --  -11.00708 -11.00628 -11.00401 -11.00340  -1.38619
 Alpha  occ. eigenvalues --   -1.36456  -1.28640  -1.28438  -1.26109  -1.21420
 Alpha  occ. eigenvalues --   -1.20168  -1.17766  -1.12191  -1.08475  -1.07751
 Alpha  occ. eigenvalues --   -1.06899  -1.06299  -1.03736  -1.03277  -1.00882
 Alpha  occ. eigenvalues --   -0.99583  -0.98747  -0.97716  -0.96987  -0.96605
 Alpha  occ. eigenvalues --   -0.95061  -0.95012  -0.93283  -0.92784  -0.92422
 Alpha  occ. eigenvalues --   -0.92013  -0.90631  -0.90179  -0.89230  -0.87673
 Alpha  occ. eigenvalues --   -0.86017  -0.84037  -0.83182  -0.82146  -0.80910
 Alpha  occ. eigenvalues --   -0.80116  -0.79156  -0.78461  -0.77929  -0.75753
 Alpha  occ. eigenvalues --   -0.75578  -0.74671  -0.72762  -0.72608  -0.71877
 Alpha  occ. eigenvalues --   -0.71138  -0.70585  -0.69116  -0.68182  -0.67164
 Alpha  occ. eigenvalues --   -0.66063  -0.64274  -0.64021  -0.63230  -0.62966
 Alpha  occ. eigenvalues --   -0.62228  -0.62144  -0.61889  -0.61127  -0.60932
 Alpha  occ. eigenvalues --   -0.60007  -0.59929  -0.59252  -0.58672  -0.58552
 Alpha  occ. eigenvalues --   -0.58387  -0.57870  -0.57577  -0.56919  -0.56582
 Alpha  occ. eigenvalues --   -0.56374  -0.56146  -0.55987  -0.55556  -0.55464
 Alpha  occ. eigenvalues --   -0.55360  -0.54723  -0.54608  -0.54057  -0.53644
 Alpha  occ. eigenvalues --   -0.53154  -0.52794  -0.52565  -0.52241  -0.52204
 Alpha  occ. eigenvalues --   -0.51967  -0.51146  -0.50797  -0.50382  -0.50092
 Alpha  occ. eigenvalues --   -0.49971  -0.49396  -0.49029  -0.48782  -0.48467
 Alpha  occ. eigenvalues --   -0.48288  -0.47922  -0.47618  -0.46900  -0.46825
 Alpha  occ. eigenvalues --   -0.46381  -0.46144  -0.45612  -0.45458  -0.45399
 Alpha  occ. eigenvalues --   -0.45135  -0.44700  -0.44366  -0.43838  -0.43623
 Alpha  occ. eigenvalues --   -0.43359  -0.42819  -0.42529  -0.42419  -0.41961
 Alpha  occ. eigenvalues --   -0.41840  -0.41301  -0.40837  -0.40503  -0.40051
 Alpha  occ. eigenvalues --   -0.39753  -0.39686  -0.39037  -0.38474  -0.37833
 Alpha  occ. eigenvalues --   -0.36371  -0.35934  -0.35785  -0.34795  -0.34382
 Alpha  occ. eigenvalues --   -0.33989  -0.32758  -0.32440  -0.31871  -0.30596
 Alpha  occ. eigenvalues --   -0.26571  -0.25959  -0.25737  -0.21105  -0.19598
 Alpha  occ. eigenvalues --   -0.16210  -0.16029
 Alpha virt. eigenvalues --    0.27148   0.27695   0.28522   0.29618   0.30105
 Alpha virt. eigenvalues --    0.32045   0.46406   0.47053   0.48772   0.49740
 Alpha virt. eigenvalues --    0.50042   0.50415   0.50744   0.52123   0.52535
 Alpha virt. eigenvalues --    0.53464   0.54080   0.55420   0.55488   0.56472
 Alpha virt. eigenvalues --    0.57370   0.57829   0.58335   0.58413   0.59103
 Alpha virt. eigenvalues --    0.59489   0.59885   0.60250   0.61102   0.61376
 Alpha virt. eigenvalues --    0.61787   0.62001   0.62364   0.63010   0.63575
 Alpha virt. eigenvalues --    0.63654   0.63832   0.64200   0.64363   0.64451
 Alpha virt. eigenvalues --    0.64893   0.65158   0.65403   0.65639   0.66171
 Alpha virt. eigenvalues --    0.66646   0.66668   0.66913   0.67183   0.67652
 Alpha virt. eigenvalues --    0.67876   0.68024   0.68674   0.68853   0.69016
 Alpha virt. eigenvalues --    0.69310   0.69468   0.69649   0.69794   0.70208
 Alpha virt. eigenvalues --    0.70686   0.70720   0.70919   0.71292   0.71359
 Alpha virt. eigenvalues --    0.71688   0.72131   0.72350   0.72744   0.72998
 Alpha virt. eigenvalues --    0.73200   0.73692   0.73805   0.73915   0.74014
 Alpha virt. eigenvalues --    0.74303   0.74942   0.74993   0.75212   0.75476
 Alpha virt. eigenvalues --    0.75601   0.76179   0.76225   0.76369   0.76644
 Alpha virt. eigenvalues --    0.77092   0.77274   0.77539   0.77626   0.77858
 Alpha virt. eigenvalues --    0.78028   0.78197   0.78458   0.79150   0.79511
 Alpha virt. eigenvalues --    0.79785   0.80037   0.80411   0.80731   0.81064
 Alpha virt. eigenvalues --    0.81319   0.81772   0.82095   0.82527   0.82616
 Alpha virt. eigenvalues --    0.83094   0.83731   0.83927   0.84485   0.84617
 Alpha virt. eigenvalues --    0.86495   0.86602   0.87150   0.87527   0.88631
 Alpha virt. eigenvalues --    0.89009   0.90384   0.91440   0.92466   0.94619
 Alpha virt. eigenvalues --    0.95416   0.96335   0.99036   1.00614   1.02679
 Alpha virt. eigenvalues --    1.11429   1.12369   1.16406   1.17273
          Condensed to atoms (all electrons):
 Mulliken charges:
               1
     1  C   -0.074859
     2  C    0.000652
     3  C   -0.063799
     4  C   -0.090941
     5  C    0.088583
     6  C   -0.011574
     7  N   -0.282324
     8  C    0.015078
     9  C    0.129291
    10  C    0.034790
    11  C   -0.114403
    12  C   -0.107868
    13  C    0.042665
    14  N   -0.291840
    15  C   -0.014419
    16  C   -0.094073
    17  C   -0.100118
    18  C   -0.098854
    19  C   -0.014475
    20  C   -0.104262
    21  C   -0.063732
    22  C    0.317790
    23  O   -0.274706
    24  O   -0.256208
    25  C   -0.055232
    26  C   -0.078989
    27  C   -0.108983
    28  C    0.000290
    29  C   -0.073124
    30  C   -0.060870
    31  C   -0.091540
    32  C    0.087837
    33  C   -0.015533
    34  N   -0.287776
    35  C    0.020791
    36  C    0.128799
    37  C    0.040660
    38  C   -0.115661
    39  C   -0.104801
    40  C    0.028218
    41  N   -0.085924
    42  C   -0.007753
    43  C   -0.110730
    44  C   -0.102260
    45  C   -0.106534
    46  C   -0.012677
    47  C   -0.111614
    48  C   -0.067128
    49  C    0.320503
    50  O   -0.278957
    51  O   -0.253943
    52  C   -0.055701
    53  C   -0.078781
    54  O   -0.456496
    55  H    0.065304
    56  H    0.053398
    57  H    0.056891
    58  H    0.064802
    59  H    0.046550
    60  H    0.054270
    61  H    0.044687
    62  H    0.052173
    63  H    0.050662
    64  H    0.055977
    65  H    0.046086
    66  H    0.052890
    67  H    0.051123
    68  H    0.046398
    69  H    0.062563
    70  H    0.055864
    71  H    0.041686
    72  H    0.058888
    73  H    0.045514
    74  H    0.079354
    75  H    0.061403
    76  H    0.073678
    77  H    0.075329
    78  H    0.070474
    79  H    0.053616
    80  H    0.070006
    81  H    0.074945
    82  H    0.058730
    83  H    0.055524
    84  H    0.088784
    85  H    0.056054
    86  H    0.056885
    87  H    0.086082
    88  H    0.053080
    89  H    0.058517
    90  H    0.054191
    91  H    0.051797
    92  H    0.088679
    93  H    0.080350
    94  H    0.066254
    95  H    0.057634
    96  H    0.056895
    97  H    0.057747
    98  H    0.082180
    99  H    0.071872
   100  H    0.068828
   101  H    0.087626
   102  H    0.065926
   103  H    0.055274
   104  H    0.067264
   105  H    0.073142
   106  H    0.079070
   107  H    0.075750
   108  H    0.075105
   109  H    0.073566
   110  H    0.056177
 Sum of Mulliken charges =  -0.00000
 Mulliken charges with hydrogens summed into heavy atoms:
               1
     1  C   -0.009555
     2  C    0.000652
     3  C   -0.010401
     4  C   -0.034050
     5  C    0.088583
     6  C   -0.011574
     7  N   -0.282324
     8  C    0.015078
     9  C    0.129291
    10  C    0.099592
    11  C   -0.013583
    12  C   -0.011008
    13  C    0.042665
    14  N   -0.291840
    15  C    0.092220
    16  C    0.004903
    17  C   -0.002598
    18  C    0.019573
    19  C    0.086100
    20  C    0.020606
    21  C   -0.002329
    22  C    0.317790
    23  O   -0.274706
    24  O   -0.256208
    25  C    0.164249
    26  C    0.119578
    27  C    0.005271
    28  C    0.000290
    29  C    0.015659
    30  C   -0.004816
    31  C   -0.034654
    32  C    0.087837
    33  C   -0.015533
    34  N   -0.287776
    35  C    0.020791
    36  C    0.128799
    37  C    0.126742
    38  C   -0.004064
    39  C    0.001187
    40  C    0.028218
    41  N   -0.085924
    42  C    0.161276
    43  C    0.013158
    44  C    0.012383
    45  C    0.047518
    46  C    0.143776
    47  C    0.009586
    48  C    0.000135
    49  C    0.320503
    50  O   -0.278957
    51  O   -0.253943
    52  C    0.172262
    53  C    0.126067
    54  O   -0.456496
 Electronic spatial extent (au):  <R**2>=          36446.6104
 Charge=             -0.0000 electrons
 Dipole moment (field-independent basis, Debye):
    X=             -6.5981    Y=             -0.3090    Z=              1.5332  Tot=              6.7810
 Quadrupole moment (field-independent basis, Debye-Ang):
   XX=           -280.2215   YY=           -294.7975   ZZ=           -293.4177
   XY=             13.6651   XZ=              6.9211   YZ=              4.7333
 Traceless Quadrupole moment (field-independent basis, Debye-Ang):
   XX=              9.2574   YY=             -5.3186   ZZ=             -3.9388
   XY=             13.6651   XZ=              6.9211   YZ=              4.7333
 Octapole moment (field-independent basis, Debye-Ang**2):
  XXX=           -168.2086  YYY=            -20.2423  ZZZ=             56.3668  XYY=            -51.6557
  XXY=             55.4962  XXZ=             48.7456  XZZ=              2.8768  YZZ=              4.2491
  YYZ=              8.8106  XYZ=            -20.1484
 Hexadecapole moment (field-independent basis, Debye-Ang**3):
 XXXX=         -30410.7124 YYYY=          -9084.3080 ZZZZ=          -4528.7221 XXXY=            606.1260
 XXXZ=             29.5807 YYYX=             79.1155 YYYZ=             89.1367 ZZZX=           -235.0884
 ZZZY=            141.6170 XXYY=          -6865.3671 XXZZ=          -5802.4481 YYZZ=          -2335.2126
 XXYZ=            122.9447 YYXZ=             23.4079 ZZXY=           -104.5654
 N-N= 8.199860266350D+03 E-N=-2.177742887673D+04  KE= 2.279164996451D+03
 ******************************Gaussian NBO Version 3.1******************************
             N A T U R A L   A T O M I C   O R B I T A L   A N D
          N A T U R A L   B O N D   O R B I T A L   A N A L Y S I S
 ******************************Gaussian NBO Version 3.1******************************
       /RESON  / : Allow strongly delocalized NBO set
       /NLMO   / : Form Natural Localized Molecular Orbitals
       /NMR /    : Analyze NMR Sheilding Tensor 

 Analyzing the SCF density

 Job title: pleiokomenine_C_1a                                              

 Storage needed:    355564 in NPA,    438187 in NBO,   2133784 in NLMO ( 104796000 available)
 GSVD:  LWork=     -108884 too small for GESVD, short by      536270 words or      536270 for optimal perf.


 NATURAL POPULATIONS:  Natural atomic orbital occupancies 
                                                          
   NAO  Atom  No  lang   Type(AO)    Occupancy      Energy
 ----------------------------------------------------------
     1    C    1  S      Cor( 1S)     1.99992     -10.93099
     2    C    1  S      Val( 2S)     1.07884      -0.16207
     3    C    1  px     Val( 2p)     0.99784       0.10901
     4    C    1  py     Val( 2p)     0.98131       0.16721
     5    C    1  pz     Val( 2p)     0.99989       0.08610
 
     6    C    2  S      Cor( 1S)     1.99990     -10.94336
     7    C    2  S      Val( 2S)     1.07742      -0.17032
     8    C    2  px     Val( 2p)     0.95646       0.13161
     9    C    2  py     Val( 2p)     0.96222       0.18487
    10    C    2  pz     Val( 2p)     0.98942       0.08850
 
    11    C    3  S      Cor( 1S)     1.99994     -10.93529
    12    C    3  S      Val( 2S)     1.08302      -0.16996
    13    C    3  px     Val( 2p)     0.98556       0.11561
    14    C    3  py     Val( 2p)     0.97578       0.16641
    15    C    3  pz     Val( 2p)     0.99160       0.08662
 
    16    C    4  S      Cor( 1S)     1.99993     -10.92894
    17    C    4  S      Val( 2S)     1.07191      -0.16147
    18    C    4  px     Val( 2p)     1.01237       0.10268
    19    C    4  py     Val( 2p)     0.97593       0.17053
    20    C    4  pz     Val( 2p)     1.02799       0.07547
 
    21    C    5  S      Cor( 1S)     1.99985     -10.97482
    22    C    5  S      Val( 2S)     1.06198      -0.17389
    23    C    5  px     Val( 2p)     0.90562       0.11951
    24    C    5  py     Val( 2p)     0.97546       0.16971
    25    C    5  pz     Val( 2p)     0.94442       0.09274
 
    26    C    6  S      Cor( 1S)     1.99990     -10.93347
    27    C    6  S      Val( 2S)     1.08413      -0.17495
    28    C    6  px     Val( 2p)     0.98492       0.12776
    29    C    6  py     Val( 2p)     0.95586       0.15750
    30    C    6  pz     Val( 2p)     0.99590       0.09833
 
    31    N    7  S      Cor( 1S)     1.99998     -15.25645
    32    N    7  S      Val( 2S)     1.41199      -0.58389
    33    N    7  px     Val( 2p)     1.55974      -0.16037
    34    N    7  py     Val( 2p)     1.06278       0.03007
    35    N    7  pz     Val( 2p)     1.23680      -0.03335
 
    36    C    8  S      Cor( 1S)     1.99996     -10.98921
    37    C    8  S      Val( 2S)     1.10575      -0.21341
    38    C    8  px     Val( 2p)     0.98217       0.08731
    39    C    8  py     Val( 2p)     0.95727       0.13374
    40    C    8  pz     Val( 2p)     0.94032       0.12157
 
    41    C    9  S      Cor( 1S)     1.99996     -11.03603
    42    C    9  S      Val( 2S)     1.11410      -0.24343
    43    C    9  px     Val( 2p)     0.92803       0.09661
    44    C    9  py     Val( 2p)     0.83195       0.14478
    45    C    9  pz     Val( 2p)     0.95226       0.09797
 
    46    C   10  S      Cor( 1S)     1.99994     -10.99187
    47    C   10  S      Val( 2S)     1.09498      -0.19470
    48    C   10  px     Val( 2p)     0.97488       0.12394
    49    C   10  py     Val( 2p)     0.92249       0.11833
    50    C   10  pz     Val( 2p)     0.94182       0.10676
 
    51    C   11  S      Cor( 1S)     1.99993     -10.96561
    52    C   11  S      Val( 2S)     1.10457      -0.20070
    53    C   11  px     Val( 2p)     0.99011       0.09877
    54    C   11  py     Val( 2p)     0.98978       0.10170
    55    C   11  pz     Val( 2p)     0.99940       0.09596
 
    56    C   12  S      Cor( 1S)     1.99996     -10.96124
    57    C   12  S      Val( 2S)     1.08822      -0.18077
    58    C   12  px     Val( 2p)     1.00508       0.10417
    59    C   12  py     Val( 2p)     0.97929       0.10491
    60    C   12  pz     Val( 2p)     1.00563       0.10339
 
    61    C   13  S      Cor( 1S)     1.99998     -10.98721
    62    C   13  S      Val( 2S)     1.09955      -0.20354
    63    C   13  px     Val( 2p)     0.94101       0.12891
    64    C   13  py     Val( 2p)     0.94746       0.12738
    65    C   13  pz     Val( 2p)     0.94761       0.12668
 
    66    N   14  S      Cor( 1S)     1.99999     -15.21685
    67    N   14  S      Val( 2S)     1.42562      -0.56442
    68    N   14  px     Val( 2p)     1.54689      -0.13310
    69    N   14  py     Val( 2p)     1.10150       0.04574
    70    N   14  pz     Val( 2p)     1.20680      -0.00349
 
    71    C   15  S      Cor( 1S)     1.99994     -10.99080
    72    C   15  S      Val( 2S)     1.07096      -0.17286
    73    C   15  px     Val( 2p)     0.98215       0.11401
    74    C   15  py     Val( 2p)     0.91806       0.11890
    75    C   15  pz     Val( 2p)     0.98901       0.09950
 
    76    C   16  S      Cor( 1S)     1.99996     -10.96353
    77    C   16  S      Val( 2S)     1.08400      -0.17642
    78    C   16  px     Val( 2p)     1.01581       0.10713
    79    C   16  py     Val( 2p)     0.98838       0.10964
    80    C   16  pz     Val( 2p)     0.96852       0.11461
 
    81    C   17  S      Cor( 1S)     1.99995     -10.96410
    82    C   17  S      Val( 2S)     1.09022      -0.18186
    83    C   17  px     Val( 2p)     1.00708       0.10443
    84    C   17  py     Val( 2p)     0.97737       0.11038
    85    C   17  pz     Val( 2p)     0.98951       0.10983
 
    86    C   18  S      Cor( 1S)     1.99994     -10.96258
    87    C   18  S      Val( 2S)     1.09302      -0.18304
    88    C   18  px     Val( 2p)     1.00070       0.10932
    89    C   18  py     Val( 2p)     0.99476       0.10439
    90    C   18  pz     Val( 2p)     0.97701       0.10413
 
    91    C   19  S      Cor( 1S)     1.99995     -10.99003
    92    C   19  S      Val( 2S)     1.07178      -0.17461
    93    C   19  px     Val( 2p)     1.00082       0.09887
    94    C   19  py     Val( 2p)     0.95348       0.09668
    95    C   19  pz     Val( 2p)     0.93497       0.12836
 
    96    C   20  S      Cor( 1S)     1.99992     -10.96667
    97    C   20  S      Val( 2S)     1.10208      -0.19524
    98    C   20  px     Val( 2p)     0.98216       0.10131
    99    C   20  py     Val( 2p)     0.96100       0.11232
   100    C   20  pz     Val( 2p)     1.02126       0.10113
 
   101    C   21  S      Cor( 1S)     1.99994     -10.99559
   102    C   21  S      Val( 2S)     1.11406      -0.22760
   103    C   21  px     Val( 2p)     0.96444       0.09694
   104    C   21  py     Val( 2p)     0.99246       0.08296
   105    C   21  pz     Val( 2p)     1.00892       0.08041
 
   106    C   22  S      Cor( 1S)     1.99991     -11.09732
   107    C   22  S      Val( 2S)     1.05649      -0.24702
   108    C   22  px     Val( 2p)     0.90234       0.10143
   109    C   22  py     Val( 2p)     0.77884       0.17942
   110    C   22  pz     Val( 2p)     0.86215       0.03752
 
   111    O   23  S      Cor( 1S)     1.99999     -20.08401
   112    O   23  S      Val( 2S)     1.80839      -1.04316
   113    O   23  px     Val( 2p)     1.71102      -0.25194
   114    O   23  py     Val( 2p)     1.49498      -0.16470
   115    O   23  pz     Val( 2p)     1.29436      -0.11803
 
   116    O   24  S      Cor( 1S)     1.99999     -20.20123
   117    O   24  S      Val( 2S)     1.72965      -1.01401
   118    O   24  px     Val( 2p)     1.29310      -0.11718
   119    O   24  py     Val( 2p)     1.48908      -0.20420
   120    O   24  pz     Val( 2p)     1.75614      -0.32227
 
   121    C   25  S      Cor( 1S)     1.99984     -11.03461
   122    C   25  S      Val( 2S)     1.07645      -0.21590
   123    C   25  px     Val( 2p)     0.83732       0.09240
   124    C   25  py     Val( 2p)     1.04129       0.04578
   125    C   25  pz     Val( 2p)     1.00999       0.05803
 
   126    C   26  S      Cor( 1S)     1.99992     -11.00398
   127    C   26  S      Val( 2S)     1.06505      -0.18451
   128    C   26  px     Val( 2p)     1.02865       0.07166
   129    C   26  py     Val( 2p)     0.99742       0.07512
   130    C   26  pz     Val( 2p)     0.92586       0.10081
 
   131    C   27  S      Cor( 1S)     1.99996     -10.97312
   132    C   27  S      Val( 2S)     1.08226      -0.17768
   133    C   27  px     Val( 2p)     0.98046       0.10591
   134    C   27  py     Val( 2p)     1.02689       0.09494
   135    C   27  pz     Val( 2p)     0.99590       0.10208
 
   136    C   28  S      Cor( 1S)     1.99990     -10.94820
   137    C   28  S      Val( 2S)     1.07856      -0.17549
   138    C   28  px     Val( 2p)     0.95203       0.13863
   139    C   28  py     Val( 2p)     0.96002       0.18498
   140    C   28  pz     Val( 2p)     0.99549       0.06694
 
   141    C   29  S      Cor( 1S)     1.99993     -10.93551
   142    C   29  S      Val( 2S)     1.08479      -0.16871
   143    C   29  px     Val( 2p)     0.98133       0.12585
   144    C   29  py     Val( 2p)     0.99119       0.16496
   145    C   29  pz     Val( 2p)     0.99520       0.06303
 
   146    C   30  S      Cor( 1S)     1.99994     -10.94268
   147    C   30  S      Val( 2S)     1.08388      -0.17672
   148    C   30  px     Val( 2p)     0.97893       0.12549
   149    C   30  py     Val( 2p)     0.97597       0.16341
   150    C   30  pz     Val( 2p)     0.99287       0.06049
 
   151    C   31  S      Cor( 1S)     1.99993     -10.93633
   152    C   31  S      Val( 2S)     1.07122      -0.16894
   153    C   31  px     Val( 2p)     1.00847       0.11106
   154    C   31  py     Val( 2p)     0.97132       0.16754
   155    C   31  pz     Val( 2p)     1.03849       0.04690
 
   156    C   32  S      Cor( 1S)     1.99985     -10.98512
   157    C   32  S      Val( 2S)     1.05906      -0.18184
   158    C   32  px     Val( 2p)     0.91057       0.12685
   159    C   32  py     Val( 2p)     0.98113       0.15853
   160    C   32  pz     Val( 2p)     0.93813       0.06309
 
   161    C   33  S      Cor( 1S)     1.99990     -10.94291
   162    C   33  S      Val( 2S)     1.08080      -0.18317
   163    C   33  px     Val( 2p)     0.99608       0.12613
   164    C   33  py     Val( 2p)     0.94096       0.15586
   165    C   33  pz     Val( 2p)     1.01263       0.06797
 
   166    N   34  S      Cor( 1S)     1.99998     -15.27134
   167    N   34  S      Val( 2S)     1.40328      -0.59668
   168    N   34  px     Val( 2p)     1.11933      -0.00193
   169    N   34  py     Val( 2p)     1.06066       0.01549
   170    N   34  pz     Val( 2p)     1.69304      -0.23370
 
   171    C   35  S      Cor( 1S)     1.99996     -11.02093
   172    C   35  S      Val( 2S)     1.11035      -0.24584
   173    C   35  px     Val( 2p)     0.94626       0.08614
   174    C   35  py     Val( 2p)     0.95555       0.10330
   175    C   35  pz     Val( 2p)     0.96594       0.07125
 
   176    C   36  S      Cor( 1S)     1.99996     -11.05877
   177    C   36  S      Val( 2S)     1.11129      -0.26410
   178    C   36  px     Val( 2p)     0.94787       0.07518
   179    C   36  py     Val( 2p)     0.84048       0.11586
   180    C   36  pz     Val( 2p)     0.92880       0.07641
 
   181    C   37  S      Cor( 1S)     1.99991     -11.04354
   182    C   37  S      Val( 2S)     1.12054      -0.26489
   183    C   37  px     Val( 2p)     0.88490       0.09179
   184    C   37  py     Val( 2p)     0.92531       0.05989
   185    C   37  pz     Val( 2p)     0.99607       0.05692
 
   186    C   38  S      Cor( 1S)     1.99994     -10.98934
   187    C   38  S      Val( 2S)     1.10450      -0.22429
   188    C   38  px     Val( 2p)     1.01381       0.07177
   189    C   38  py     Val( 2p)     0.98293       0.07943
   190    C   38  pz     Val( 2p)     0.98504       0.07384
 
   191    C   39  S      Cor( 1S)     1.99995     -10.99172
   192    C   39  S      Val( 2S)     1.09251      -0.21456
   193    C   39  px     Val( 2p)     1.00712       0.07370
   194    C   39  py     Val( 2p)     0.97522       0.07554
   195    C   39  pz     Val( 2p)     0.99773       0.07734
 
   196    C   40  S      Cor( 1S)     1.99998     -11.02651
   197    C   40  S      Val( 2S)     1.10513      -0.24948
   198    C   40  px     Val( 2p)     0.93970       0.08603
   199    C   40  py     Val( 2p)     0.95036       0.08911
   200    C   40  pz     Val( 2p)     0.95473       0.07965
 
   201    N   41  S      Cor( 1S)     1.99999     -15.42083
   202    N   41  S      Val( 2S)     1.40213      -0.66456
   203    N   41  px     Val( 2p)     1.25686      -0.13310
   204    N   41  py     Val( 2p)     1.15164      -0.10159
   205    N   41  pz     Val( 2p)     1.16329      -0.10566
 
   206    C   42  S      Cor( 1S)     1.99991     -11.03827
   207    C   42  S      Val( 2S)     1.08961      -0.23543
   208    C   42  px     Val( 2p)     0.99524       0.05941
   209    C   42  py     Val( 2p)     0.83296       0.09183
   210    C   42  pz     Val( 2p)     1.03868       0.03938
 
   211    C   43  S      Cor( 1S)     1.99997     -11.00146
   212    C   43  S      Val( 2S)     1.07908      -0.21236
   213    C   43  px     Val( 2p)     0.97435       0.07005
   214    C   43  py     Val( 2p)     1.01009       0.06036
   215    C   43  pz     Val( 2p)     1.01763       0.06488
 
   216    C   44  S      Cor( 1S)     1.99996     -10.99819
   217    C   44  S      Val( 2S)     1.08479      -0.21291
   218    C   44  px     Val( 2p)     1.00530       0.06838
   219    C   44  py     Val( 2p)     0.97606       0.07351
   220    C   44  pz     Val( 2p)     1.00381       0.07034
 
   221    C   45  S      Cor( 1S)     1.99994     -10.99127
   222    C   45  S      Val( 2S)     1.09390      -0.21194
   223    C   45  px     Val( 2p)     1.02401       0.06685
   224    C   45  py     Val( 2p)     0.96478       0.08063
   225    C   45  pz     Val( 2p)     0.99795       0.08290
 
   226    C   46  S      Cor( 1S)     1.99992     -11.03095
   227    C   46  S      Val( 2S)     1.09066      -0.22920
   228    C   46  px     Val( 2p)     1.04069       0.05092
   229    C   46  py     Val( 2p)     0.99849       0.05491
   230    C   46  pz     Val( 2p)     0.83241       0.09249
 
   231    C   47  S      Cor( 1S)     1.99992     -10.99865
   232    C   47  S      Val( 2S)     1.09918      -0.22649
   233    C   47  px     Val( 2p)     1.02016       0.05957
   234    C   47  py     Val( 2p)     0.96890       0.07694
   235    C   47  pz     Val( 2p)     0.98719       0.06885
 
   236    C   48  S      Cor( 1S)     1.99995     -11.01766
[...]
 Sum       29.7484       -0.7783      30.5267        -2.2110      31.9594

 Contributions to Isotropic shielding for atom   94 (    32.2821 ppm):
                         Standard Origin              Atomic Origin
 NLMO      Total    Paramagnetic  Diamagnetic   Paramagnetic  Diamagnetic
  102       1.6454       -0.0106       1.6560         0.7432       0.9022
  103       0.1294        1.4947      -1.3653        -0.9189       1.0483
  104       0.2990        1.2482      -0.9491        -0.6216       0.9206
  105       0.5577        3.2417      -2.6840        -0.4786       1.0363
  106      26.1020       -0.3326      26.4346         0.4787      25.6234
  107       1.9834        2.6796      -0.6963         0.1739       1.8095
 Sum       30.7169        8.3210      22.3959        -0.6234      31.3403

 Contributions to Isotropic shielding for atom   95 (    32.5390 ppm):
                         Standard Origin              Atomic Origin
 NLMO      Total    Paramagnetic  Diamagnetic   Paramagnetic  Diamagnetic
   89      -0.3716        0.5403      -0.9119        -1.0221       0.6505
   97       0.1037       -0.9426       1.0463        -0.6195       0.7233
   98      -0.0850       -0.0893       0.0043        -1.1572       1.0722
  100      -0.3329        0.6304      -0.9634        -1.1325       0.7995
  102       1.9616       -1.8321       3.7938         1.1599       0.8017
  105       1.0843        1.4660      -0.3816         0.1906       0.8938
  106       1.8322        3.4304      -1.5983         0.0009       1.8312
  107      26.2754        0.1169      26.1585         0.4366      25.8388
 Sum       30.4678        3.3200      27.1478        -2.1432      32.6111

 Contributions to Isotropic shielding for atom   96 (    32.4641 ppm):
                         Standard Origin              Atomic Origin
 NLMO      Total    Paramagnetic  Diamagnetic   Paramagnetic  Diamagnetic
   89      -0.3428        0.4567      -0.7995        -1.0968       0.7540
   90      -0.0399        0.9796      -1.0195        -0.7880       0.7481
   94      -0.1786        0.8724      -1.0509        -1.0468       0.8682
   97       1.8178       -1.2376       3.0554         1.0044       0.8134
  105       1.5040       -0.2751       1.7791         0.6228       0.8812
  108      26.2823        0.2139      26.0684         0.4876      25.7947
  109       1.4919        4.0748      -2.5829        -0.2997       1.7916
 Sum       30.5347        5.0847      25.4500        -1.1165      31.6512

 Contributions to Isotropic shielding for atom   97 (    32.4005 ppm):
                         Standard Origin              Atomic Origin
 NLMO      Total    Paramagnetic  Diamagnetic   Paramagnetic  Diamagnetic
   94      -0.2413        1.6270      -1.8683        -0.9314       0.6901
   97       1.0927        0.9387       0.1540         0.3202       0.7725
   98      -0.3390        1.6131      -1.9521        -1.3899       1.0509
  105       0.7277        2.3387      -1.6111        -0.2233       0.9509
  106       0.2516        1.1111      -0.8595        -0.7172       0.9688
  108       1.9187        3.1979      -1.2792         0.1425       1.7761
  109      26.4661       -0.4290      26.8951         0.6881      25.7780
 Sum       29.8765       10.3976      19.4789        -2.1109      31.9875

 Contributions to Isotropic shielding for atom   98 (    32.1538 ppm):
                         Standard Origin              Atomic Origin
 NLMO      Total    Paramagnetic  Diamagnetic   Paramagnetic  Diamagnetic
   71      -0.1055       -1.1587       1.0532        -1.2279       1.1224
   80       0.1775       -1.1991       1.3766        -0.9120       1.0895
   85       1.3969        0.0317       1.3652         0.5578       0.8391
  110       1.1893       -0.9551       2.1444         0.2922       0.8971
  111      25.4768        0.6067      24.8701         0.3289      25.1479
  112       1.9081        0.1270       1.7812        -0.1018       2.0100
  114      -0.0959       -1.1871       1.0912        -1.1848       1.0889
  121       0.0448       -1.1104       1.1551        -0.7487       0.7934
 Sum       29.9921       -4.8449      34.8370        -2.9963      32.9884

 Contributions to Isotropic shielding for atom   99 (    33.0418 ppm):
                         Standard Origin              Atomic Origin
 NLMO      Total    Paramagnetic  Diamagnetic   Paramagnetic  Diamagnetic
   79       0.4025       -0.7008       1.1033        -0.2327       0.6353
   81       0.2311       -0.8727       1.1039        -0.6092       0.8403
   85       0.5555        1.6946      -1.1392        -0.1830       0.7384
   87       0.0201       -1.1917       1.2119        -0.8160       0.8361
  110       0.9101        1.2142      -0.3041         0.2533       0.6568
  111       2.2565       -0.0977       2.3542         0.3243       1.9322
  112      25.9298        0.1218      25.8080         0.4678      25.4620
  115       0.0960       -1.0350       1.1310        -0.4846       0.5806
  118       0.7965       -1.3957       2.1922        -0.0282       0.8247
  120       1.5175       -0.7394       2.2569         0.6037       0.9138
  121      -0.2808       -3.5465       3.2657        -1.2557       0.9749
  123       0.3106       -1.2443       1.5549        -0.4510       0.7616
  126      -0.0631       -1.0066       0.9435        -0.5556       0.4925
  191      -0.6866        1.5342      -2.2208         0.1805      -0.8671
 Sum       31.9956       -7.2656      39.2612        -2.7864      34.7820

 Contributions to Isotropic shielding for atom  100 (    31.5071 ppm):
                         Standard Origin              Atomic Origin
 NLMO      Total    Paramagnetic  Diamagnetic   Paramagnetic  Diamagnetic
   98       0.1144       -1.3166       1.4310        -0.7586       0.8730
   99      -0.1253        0.2698      -0.3951        -1.0294       0.9041
  100      -0.0390        1.5450      -1.5840        -0.6180       0.5790
  107      -0.2751       -2.3004       2.0253        -0.8040       0.5288
  113      26.5069        0.2433      26.2636         0.9723      25.5346
  114       1.7853        0.6902       1.0950        -0.1168       1.9021
  115       0.1149       -1.0128       1.1277        -0.4892       0.6041
  116      -0.5542       -2.6160       2.0618        -0.5803       0.0261
  121       0.1840       -1.5514       1.7354        -0.7921       0.9762
  191      -0.5273        0.9361      -1.4634         0.3645      -0.8919
 Sum       27.1846       -5.1127      32.2974        -3.8515      31.0362

 Contributions to Isotropic shielding for atom  101 (    31.1140 ppm):
                         Standard Origin              Atomic Origin
 NLMO      Total    Paramagnetic  Diamagnetic   Paramagnetic  Diamagnetic
  100       1.3410       -0.2280       1.5690         0.4785       0.8625
  101       0.1650       -0.6462       0.8112        -0.8670       1.0320
  104      -0.1404       -1.4370       1.2967        -0.9024       0.7620
  110       1.1707       -1.1524       2.3232         0.2023       0.9685
  111      -0.0125       -0.3899       0.3774        -1.1887       1.1762
  113       1.3492        1.2699       0.0793        -0.4085       1.7577
  114      25.6344        0.7314      24.9030         0.6952      24.9391
 Sum       29.5074       -1.8524      31.3598        -1.9905      31.4979

 Contributions to Isotropic shielding for atom  102 (    31.6308 ppm):
                         Standard Origin              Atomic Origin
 NLMO      Total    Paramagnetic  Diamagnetic   Paramagnetic  Diamagnetic
   83      -0.1839        0.2688      -0.4527        -1.0055       0.8216
   87       0.3362       -0.8217       1.1579         0.0529       0.2834
   98       1.8631       -1.5758       3.4389         0.9307       0.9324
  107      -0.4483       -1.2603       0.8120        -0.8103       0.3620
  115       1.3213       -0.3210       1.6423         0.4697       0.8516
  116      26.1190        0.3065      25.8125         0.4730      25.6460
  117       1.2939        3.1330      -1.8390        -0.6173       1.9112
  118       0.1908       -0.3276       0.5184        -0.9027       1.0935
  119       0.3047        1.0405      -0.7358        -0.1221       0.4269
  120      -0.1942       -0.7440       0.5498        -1.0735       0.8793
  121       0.4016       -0.8826       1.2842        -1.3024       1.7040
 Sum       31.0042       -1.1841      32.1883        -3.9076      34.9118

 Contributions to Isotropic shielding for atom  103 (    32.1816 ppm):
                         Standard Origin              Atomic Origin
 NLMO      Total    Paramagnetic  Diamagnetic   Paramagnetic  Diamagnetic
   94      -0.2718        1.2892      -1.5610        -1.1338       0.8620
   96      -0.0336       -1.4275       1.3939        -0.8057       0.7721
   97      -0.2126        1.3225      -1.5351        -1.0301       0.8175
   98       0.9898        1.7734      -0.7836         0.0023       0.9875
  109      -0.0491       -1.3957       1.3466        -0.8315       0.7824
  115       0.4256        3.3271      -2.9015        -0.6430       1.0685
  116       1.9392        2.4315      -0.4923         0.0389       1.9003
  117      26.6050       -0.8329      27.4379         0.7775      25.8275
  119      -0.1500        0.0864      -0.2364        -1.3014       1.1513
  121       0.1101       -0.0230       0.1331        -0.9168       1.0269
 Sum       29.3525        6.5509      22.8015        -5.8436      35.1961

 Contributions to Isotropic shielding for atom  104 (    31.1612 ppm):
                         Standard Origin              Atomic Origin
 NLMO      Total    Paramagnetic  Diamagnetic   Paramagnetic  Diamagnetic
   81      -0.5815        1.2502      -1.8317        -1.2872       0.7057
   82      -0.1463        0.3803      -0.5266        -1.0913       0.9450
   86      -0.4496        1.6459      -2.0955        -1.5570       1.1074
   87       1.4521        1.2945       0.1577         0.5141       0.9380
   92      -0.0296       -1.0005       0.9709        -0.8269       0.7973
  115       0.8450        3.6555      -2.8105        -0.2779       1.1229
  117      -0.1393       -0.1372      -0.0021        -1.3080       1.1688
  118       0.3441        4.4161      -4.0721        -0.5449       0.8890
  119      26.0973       -1.1998      27.2972         0.5914      25.5059
  122      -0.1833       -0.4877       0.3044        -1.8607       1.6774
  127      -0.2058       -2.2148       2.0089        -0.6192       0.4134
  193      -0.4330       -0.5585       0.1255         0.5738      -1.0068
 Sum       26.5701        7.0440      19.5261        -7.6937      34.2638

 Contributions to Isotropic shielding for atom  105 (    30.5911 ppm):
                         Standard Origin              Atomic Origin
 NLMO      Total    Paramagnetic  Diamagnetic   Paramagnetic  Diamagnetic
  120      -1.0539        0.5582      -1.6121        -1.9476       0.8937
  121      -0.2860        1.5580      -1.8440        -1.8468       1.5608
  122      -1.0305        0.5527      -1.5832        -1.8136       0.7832
  123       0.7384        1.3736      -0.6352        -0.7272       1.4657
  124      26.2886        0.5375      25.7511         1.0612      25.2274
  125       1.1847        3.7731      -2.5884        -0.8578       2.0425
  126       1.8464       -0.5218       2.3683        -0.0253       1.8718
  191       0.4207       -1.2163       1.6370         1.1939      -0.7732
  193       1.3619       -0.6661       2.0280         1.4225      -0.0606
 Sum       29.4703        5.9488      23.5214        -3.5409      33.0112

 Contributions to Isotropic shielding for atom  106 (    30.5316 ppm):
                         Standard Origin              Atomic Origin
 NLMO      Total    Paramagnetic  Diamagnetic   Paramagnetic  Diamagnetic
  120      -0.4635        0.0172      -0.4807        -1.0839       0.6204
  121       0.0095        0.5839      -0.5744        -1.0211       1.0306
  123       0.6168        2.3908      -1.7741        -1.4581       2.0749
  124       0.8199        3.5407      -2.7209        -1.1658       1.9857
  125      26.0378        0.4268      25.6110         0.8711      25.1667
  126       1.7677       -0.0078       1.7755        -0.2279       1.9956
  193       0.5845       -0.8582       1.4426         1.0534      -0.4689
 Sum       29.3725        6.0934      23.2791        -3.0324      32.4049

 Contributions to Isotropic shielding for atom  107 (    30.6973 ppm):
                         Standard Origin              Atomic Origin
 NLMO      Total    Paramagnetic  Diamagnetic   Paramagnetic  Diamagnetic
  120      -0.5171        0.0806      -0.5977        -1.4248       0.9078
  121      -0.0909        0.4070      -0.4979        -1.6169       1.5260
  123       2.6627       -5.1318       7.7945         1.2489       1.4138
  124       1.4574        0.2392       1.2182        -0.4180       1.8753
  125       1.5902        0.2515       1.3386        -0.4552       2.0454
  126      25.8682        1.0403      24.8279         0.7088      25.1594
  194       0.0467       -0.9907       1.0374        -0.4842       0.5309
 Sum       31.0173       -4.1039      35.1212        -2.4413      33.4585

 Contributions to Isotropic shielding for atom  108 (    30.9641 ppm):
                         Standard Origin              Atomic Origin
 NLMO      Total    Paramagnetic  Diamagnetic   Paramagnetic  Diamagnetic
   76      -0.6020        0.0854      -0.6874        -1.4536       0.8516
   81      -0.6283        1.6166      -2.2448        -1.3538       0.7255
   82       1.2001       -0.8052       2.0053         0.0165       1.1836
   86      -0.2774        0.9755      -1.2529        -1.1078       0.8304
   87      -0.2392        1.0348      -1.2741        -1.1187       0.8795
   92      -0.1227       -1.1517       1.0290        -0.6452       0.5225
  122       0.5244       -0.4806       1.0050        -0.0690       0.5934
  127      25.9954        0.1299      25.8655         0.6335      25.3619
  128       1.7198        3.0380      -1.3182        -0.2655       1.9853
  129       1.1413        2.6694      -1.5281        -0.6886       1.8299
  190       1.4680        0.0595       1.4085         1.4701      -0.0021
  193      -0.8760        0.0572      -0.9333         0.3966      -1.2726
 Sum       29.3033        7.2288      22.0745        -4.1856      33.4889

 Contributions to Isotropic shielding for atom  109 (    30.7180 ppm):
                         Standard Origin              Atomic Origin
 NLMO      Total    Paramagnetic  Diamagnetic   Paramagnetic  Diamagnetic
   75      -0.5652        0.7265      -1.2917        -1.2811       0.7158
   76      -0.9096        0.2239      -1.1335        -2.2741       1.3645
   79      -0.3791        1.0703      -1.4495        -1.0107       0.6315
   82       1.8621       -1.7085       3.5706         0.6164       1.2457
  127       1.5537        3.0592      -1.5054        -0.4149       1.9686
  128      25.9281        0.2882      25.6399         0.6033      25.3248
  129       1.3861        2.0858      -0.6997        -0.4104       1.7965
 Sum       28.8760        5.7453      23.1307        -4.1714      33.0474

 Contributions to Isotropic shielding for atom  110 (    31.9080 ppm):
                         Standard Origin              Atomic Origin
 NLMO      Total    Paramagnetic  Diamagnetic   Paramagnetic  Diamagnetic
   75      -0.3526        0.9919      -1.3445        -0.9678       0.6152
   76      -1.2363        0.4025      -1.6388        -2.4270       1.1907
   79      -0.5680        1.4023      -1.9703        -1.2263       0.6583
   81      -0.3564        0.6493      -1.0057        -0.5507       0.1943
   82       1.7086       -1.9991       3.7077         0.9359       0.7727
   86      -0.1560        0.3548      -0.5108        -1.1849       1.0289
   92      -0.1532       -1.0125       0.8593        -0.8972       0.7440
  127       1.7367        3.4102      -1.6734        -0.1765       1.9132
  128       1.8486        2.5277      -0.6791        -0.0484       1.8970
  129      26.6833        0.5493      26.1340         0.9928      25.6905
 Sum       29.1547        7.2764      21.8783        -5.5501      34.7048
 
 1\1\GINC-PCSN02\SP\RHF\STO-3G\C45H56N4O5\ABENIDD\30-May-2024\0\\# nmr=
 giao hf/sto-3g pop=nbo geom=connectivity\\pleiokomenine_C_1a\\0,1\C,0,
 0.,0.,0.\C,0,1.4013,0.,0.\C,0,2.0941,1.2293,0.\C,0,1.4088,2.4527,-0.02
 88\C,0,0.0264,2.4419,-0.0897\C,0,-0.6623,1.2138,-0.0531\N,0,-0.8626,3.
 5474,-0.2445\C,0,-2.1417,1.4996,-0.0617\C,0,-2.0678,2.8777,-0.8103\C,0
 ,-3.127,0.5888,-0.794\C,0,-1.8108,2.6201,-2.368\C,0,-2.8898,1.7292,-2.
 9843\C,0,-3.9018,1.3329,-1.9042\N,0,-4.1167,0.2374,0.2299\C,0,-4.9702,
 -0.8472,-0.2049\C,0,-5.8138,-0.3149,-1.3763\C,0,-4.9752,0.3728,-2.4702
 \C,0,-2.5844,1.404,1.4218\C,0,-3.3949,0.1065,1.474\C,0,-4.5163,2.6646,
 -1.3441\C,0,-3.4154,3.6309,-0.7902\C,0,-3.8256,4.2869,0.5183\O,0,-4.84
 6,4.0363,1.1479\O,0,-2.9549,5.2793,0.8568\C,0,-3.2556,5.9279,2.0915\C,
 0,-0.3135,4.7441,-0.8614\C,0,2.1525,-1.3121,-0.0698\C,0,2.3023,-1.8284
 ,-1.486\C,0,1.1916,-2.3574,-2.1588\C,0,3.5325,-1.7262,-2.165\C,0,3.665
 6,-2.1519,-3.4942\C,0,2.5618,-2.6736,-4.1482\C,0,1.3286,-2.746,-3.4813
 \N,0,2.4839,-3.175,-5.4741\C,0,0.2682,-3.1999,-4.4535\C,0,1.2329,-3.97
 01,-5.4441\C,0,-0.8576,-4.1476,-4.0064\C,0,1.5344,-5.4107,-4.8396\C,0,
 0.2474,-6.2389,-4.7084\C,0,-0.9648,-5.3358,-5.0216\N,0,-2.0957,-3.2745
 ,-3.877\C,0,-3.3904,-4.0433,-3.9123\C,0,-3.4732,-5.1455,-4.9503\C,0,-2
 .2837,-6.0912,-4.8303\C,0,-0.4623,-1.9193,-4.9389\C,0,-1.949,-2.249,-4
 .9559\C,0,-0.7887,-4.932,-6.526\C,0,0.5783,-4.2585,-6.8036\C,0,0.453,-
 3.0925,-7.768\O,0,-0.5958,-2.514,-8.0264\O,0,1.6477,-2.8221,-8.3608\C,
 0,1.6213,-1.7072,-9.2521\C,0,3.7123,-3.7118,-6.0402\O,0,-2.0751,-2.623
 2,-2.6501\H,0,-0.5613,-0.9299,0.0103\H,0,3.1817,1.2378,-0.0002\H,0,1.9
 673,3.3809,-0.0402\H,0,-2.6204,-0.3026,-1.1863\H,0,-1.7882,3.577,-2.90
 65\H,0,-0.831,2.1666,-2.563\H,0,-3.3857,2.2576,-3.8079\H,0,-2.4207,0.8
 406,-3.4246\H,0,-4.3921,-1.7279,-0.5095\H,0,-5.6455,-1.1564,0.6008\H,0
 ,-6.3884,-1.1369,-1.8186\H,0,-6.5474,0.405,-0.9907\H,0,-4.48,-0.4149,-
 3.0537\H,0,-5.6383,0.9025,-3.1644\H,0,-3.2241,2.2333,1.7207\H,0,-1.761
 1,1.368,2.1452\H,0,-2.7456,-0.7763,1.4921\H,0,-4.0567,0.0866,2.3448\H,
 0,-5.054,3.1796,-2.1519\H,0,-5.2764,2.4447,-0.5874\H,0,-3.3652,4.475,-
 1.495\H,0,-3.2774,5.2043,2.9127\H,0,-2.4641,6.6547,2.2936\H,0,-4.2074,
 6.4631,2.0193\H,0,0.2027,4.5258,-1.803\H,0,0.3917,5.2342,-0.1815\H,0,-
 1.1061,5.4678,-1.0748\H,0,1.6362,-2.0676,0.5374\H,0,3.139,-1.198,0.397
 8\H,0,0.2208,-2.4146,-1.6747\H,0,4.3966,-1.2981,-1.6619\H,0,4.6228,-2.
 054,-3.9928\H,0,-0.6963,-4.5411,-2.9931\H,0,2.2435,-5.9557,-5.4759\H,0
 ,2.0177,-5.3457,-3.8568\H,0,0.1805,-6.6593,-3.6972\H,0,0.2826,-7.0946,
 -5.3946\H,0,-3.4962,-4.4802,-2.9106\H,0,-4.1856,-3.3011,-4.0457\H,0,-4
 .3996,-5.7116,-4.7976\H,0,-3.5388,-4.7205,-5.9562\H,0,-2.3028,-6.5702,
 -3.8428\H,0,-2.3792,-6.8968,-5.5683\H,0,-0.3292,-1.0955,-4.2227\H,0,-0
 .1018,-1.5169,-5.8843\H,0,-2.2901,-2.6807,-5.8942\H,0,-2.5816,-1.3927,
 -4.7017\H,0,-1.6215,-4.323,-6.8757\H,0,-0.8453,-5.8392,-7.1454\H,0,1.1
 847,-4.9972,-7.35\H,0,0.9684,-1.9166,-10.105\H,0,2.6371,-1.5468,-9.623
 7\H,0,1.298,-0.8024,-8.7277\H,0,3.515,-4.2056,-6.9966\H,0,4.4264,-2.90
 56,-6.2393\H,0,4.1852,-4.4442,-5.3762\\Version=ES64L-G16RevB.01\State=
 1-A\HF=-2300.2223658\RMSD=3.856e-09\Dipole=0.7542499,-1.4922285,-2.078
 8793\Quadrupole=-9.5100885,12.4693167,-2.9592282,3.3529087,1.5077844,6
 .0840482\PG=C01 [X(C45H56N4O5)]\\@


 You never know when you're making a memory.
                        -- Rickie Lee Jones
 Job cpu time:       0 days  0 hours 11 minutes 55.4 seconds.
 Elapsed time:       0 days  0 hours  1 minutes 58.9 seconds.
 File lengths (MBytes):  RWF=     67 Int=      0 D2E=      0 Chk=     10 Scr=      1
 Normal termination of Gaussian 16 at Thu May 30 08:37:12 2024.
