 Entering Gaussian System, Link 0=g16
 Input=1_pleiokomenine_1a_c_25.gjf
 Output=1_pleiokomenine_1a_c_25.log
 Initial command:
 /opt/gaussian/g16/l1.exe "/data/abenidd/Elvis/pleiokomenine_C/NMR_HF/1a/1_pleiokomenine_1a_c_25/Gau-25719.inp" -scrdir="/data/abenidd/Elvis/pleiokomenine_C/NMR_HF/1a/1_pleiokomenine_1a_c_25/"
 Entering Link 1 = /opt/gaussian/g16/l1.exe PID=     25721.
  
 Copyright (c) 1988-2017, Gaussian, Inc.  All Rights Reserved.
  
 This is part of the Gaussian(R) 16 program.  It is based on
 the Gaussian(R) 09 system (copyright 2009, Gaussian, Inc.),
 the Gaussian(R) 03 system (copyright 2003, Gaussian, Inc.),
 the Gaussian(R) 98 system (copyright 1998, Gaussian, Inc.),
 the Gaussian(R) 94 system (copyright 1995, Gaussian, Inc.),
 the Gaussian 92(TM) system (copyright 1992, Gaussian, Inc.),
 the Gaussian 90(TM) system (copyright 1990, Gaussian, Inc.),
 the Gaussian 88(TM) system (copyright 1988, Gaussian, Inc.),
 the Gaussian 86(TM) system (copyright 1986, Carnegie Mellon
 University), and the Gaussian 82(TM) system (copyright 1983,
 Carnegie Mellon University). Gaussian is a federally registered
 trademark of Gaussian, Inc.
  
 This software contains proprietary and confidential information,
 including trade secrets, belonging to Gaussian, Inc.
  
 This software is provided under written license and may be
 used, copied, transmitted, or stored only in accord with that
 written license.
  
 The following legend is applicable only to US Government
 contracts under FAR:
  
                    RESTRICTED RIGHTS LEGEND
  
 Use, reproduction and disclosure by the US Government is
 subject to restrictions as set forth in subparagraphs (a)
 and (c) of the Commercial Computer Software - Restricted
 Rights clause in FAR 52.227-19.
  
 Gaussian, Inc.
 340 Quinnipiac St., Bldg. 40, Wallingford CT 06492
  
  
 ---------------------------------------------------------------
 Warning -- This program may not be used in any manner that
 competes with the business of Gaussian, Inc. or will provide
 assistance to any competitor of Gaussian, Inc.  The licensee
 of this program is prohibited from giving any competitor of
 Gaussian, Inc. access to this program.  By using this program,
 the user acknowledges that Gaussian, Inc. is engaged in the
 business of creating and licensing software in the field of
 computational chemistry and represents and warrants to the
 licensee that it is not a competitor of Gaussian, Inc. and that
 it will not use this program in any manner prohibited above.
 ---------------------------------------------------------------
  

 Cite this work as:
 Gaussian 16, Revision B.01,
 M. J. Frisch, G. W. Trucks, H. B. Schlegel, G. E. Scuseria, 
 M. A. Robb, J. R. Cheeseman, G. Scalmani, V. Barone, 
 G. A. Petersson, H. Nakatsuji, X. Li, M. Caricato, A. V. Marenich, 
 J. Bloino, B. G. Janesko, R. Gomperts, B. Mennucci, H. P. Hratchian, 
 J. V. Ortiz, A. F. Izmaylov, J. L. Sonnenberg, D. Williams-Young, 
 F. Ding, F. Lipparini, F. Egidi, J. Goings, B. Peng, A. Petrone, 
 T. Henderson, D. Ranasinghe, V. G. Zakrzewski, J. Gao, N. Rega, 
 G. Zheng, W. Liang, M. Hada, M. Ehara, K. Toyota, R. Fukuda, 
 J. Hasegawa, M. Ishida, T. Nakajima, Y. Honda, O. Kitao, H. Nakai, 
 T. Vreven, K. Throssell, J. A. Montgomery, Jr., J. E. Peralta, 
 F. Ogliaro, M. J. Bearpark, J. J. Heyd, E. N. Brothers, K. N. Kudin, 
 V. N. Staroverov, T. A. Keith, R. Kobayashi, J. Normand, 
 K. Raghavachari, A. P. Rendell, J. C. Burant, S. S. Iyengar, 
 J. Tomasi, M. Cossi, J. M. Millam, M. Klene, C. Adamo, R. Cammi, 
 J. W. Ochterski, R. L. Martin, K. Morokuma, O. Farkas, 
 J. B. Foresman, and D. J. Fox, Gaussian, Inc., Wallingford CT, 2016.
 
 ******************************************
 Gaussian 16:  ES64L-G16RevB.01 20-Dec-2017
                30-May-2024 
 ******************************************
 %nprocshared=8
 Will use up to    8 processors via shared memory.
 ----------------------------------------------
 # nmr=giao hf/sto-3g pop=nbo geom=connectivity
 ----------------------------------------------
 1/38=1,57=2,172=1/1;
 2/12=2,17=6,18=5,40=1/2;
 3/6=3,11=9,25=1,30=1/1,2,3,8;
 4//1;
 5/5=2,38=5/2;
 8/6=1,10=90,11=11/1;
 10/13=100,45=16/2;
 6/7=2,8=2,9=2,10=2,28=1,40=1,64=1/1,7;
 99/9=1/99;
 ------------------
 pleiokomenine_C_1a
 ------------------
 Symbolic Z-matrix:
 Charge =  0 Multiplicity = 1
 C                     0.        0.        0. 
 C                     1.4009    0.        0. 
 C                     2.0939    1.2291    0. 
 C                     1.4096    2.4512   -0.0004 
 C                     0.026     2.4443   -0.02 
 C                    -0.6633    1.2187   -0.0034 
 N                    -0.8556    3.558    -0.0735 
 C                    -2.1439    1.4974    0.0707 
 C                    -2.1139    2.9424   -0.5658 
 C                    -3.1415    0.6252   -0.7058 
 C                    -2.0415    2.8048   -2.1496 
 C                    -3.2782    2.0865   -2.7035 
 C                    -4.1113    1.5427   -1.5267 
 N                    -3.7696   -0.2203    0.3122 
 C                    -4.9899   -0.8932   -0.1077 
 C                    -5.9851   -0.0182   -0.869 
 C                    -5.3086    0.72     -2.024 
 C                    -2.545     1.3197    1.5552 
 C                    -3.8547    0.5422    1.5483 
 C                    -4.5991    2.8085   -0.7426 
 C                    -3.4174    3.7203   -0.3128 
 C                    -3.6144    4.301     1.0765 
 O                    -4.4179    3.8885    1.904 
 O                    -2.8299    5.4005    1.2551 
 C                    -2.9253    5.9833    2.5544 
 C                    -0.3287    4.7788   -0.664 
 C                     2.1627   -1.3052   -0.0185 
 C                     2.3585   -1.8605   -1.4113 
 C                     3.4073   -1.3914   -2.2134 
 C                     1.476    -2.8333   -1.9235 
 C                     1.618    -3.329    -3.2253 
 C                     2.6411   -2.842    -4.0207 
 C                     3.5467   -1.9037   -3.4951 
 N                     2.9128   -3.1507   -5.3822 
 C                     4.6039   -1.6263   -4.5338 
 C                     3.7582   -2.0103   -5.8098 
 C                     5.152    -0.211    -4.7003 
 C                     2.838    -0.7727   -6.195 
 C                     3.6901    0.4506   -6.5712 
 C                     5.1684    0.1723   -6.2084 
 N                     6.4997   -0.1394   -3.9703 
 C                     7.6573    0.1192   -4.9033 
 C                     7.436     1.3082   -5.8276 
 C                     6.0263    1.4232   -6.4093 
 C                     5.8473   -2.447    -4.1676 
 C                     6.6555   -1.492    -3.3082 
 C                     5.602    -1.0023   -7.1551 
 C                     4.6355   -2.2211   -7.0576 
 C                     5.3556   -3.5559   -7.181 
 O                     6.568    -3.7074   -7.0945 
 O                     4.4821   -4.5523   -7.4923 
 C                     5.0788   -5.8444   -7.6053 
 C                     1.7742   -3.5828   -6.1823 
 O                     6.4717    0.8428   -3.0122 
 H                    -0.5613   -0.9295    0.0203 
 H                     3.1827    1.2397   -0.0037 
 H                     1.9722    3.3775    0.0037 
 H                    -2.6163   -0.0436   -1.4013 
 H                    -1.9664    3.7939   -2.6196 
 H                    -1.1429    2.2632   -2.4703 
 H                    -3.8725    2.7794   -3.3125 
 H                    -2.9642    1.2786   -3.3762 
 H                    -4.6996   -1.7253   -0.7622 
 H                    -5.4862   -1.3595    0.7521 
 H                    -6.7891   -0.6486   -1.2669 
 H                    -6.4607    0.6929   -0.1849 
 H                    -4.9726   -0.0167   -2.7654 
 H                    -6.0389    1.3622   -2.5305 
 H                    -2.6045    2.2486    2.1212 
 H                    -1.8086    0.7056    2.0939 
 H                    -3.9179   -0.1186    2.4196 
 H                    -4.7171    1.2097    1.5839 
 H                    -5.2592    3.3992   -1.3941 
 H                    -5.2326    2.5327    0.1006 
 H                    -3.4477    4.5988   -0.9758 
 H                    -3.9327    6.3762    2.7229 
 H                    -2.6586    5.2532    3.3252 
 H                    -2.2161    6.8139    2.6058 
 H                     0.1316    4.5984   -1.642 
 H                     0.4179    5.2318   -0.0029 
 H                    -1.1238    5.5182   -0.8005 
 H                     3.1415   -1.1747    0.4623 
 H                     1.6416   -2.0408    0.6087 
 H                     4.0942   -0.637    -1.8367 
 H                     0.6589   -3.2024   -1.307 
 H                     0.9188   -4.0709   -3.5932 
 H                     4.5231    0.5096   -4.1574 
 H                     2.1825   -1.0217   -7.0392 
 H                     2.1636   -0.4988   -5.3741 
 H                     3.3088    1.3359   -6.0471 
 H                     3.5894    0.6618   -7.6434 
 H                     8.5311    0.2925   -4.2627 
 H                     7.8461   -0.8015   -5.4584 
 H                     7.6644    2.2355   -5.2872 
 H                     8.1659    1.2545   -6.6444 
 H                     5.5333    2.2762   -5.9229 
 H                     6.0867    1.6877   -7.4723 
 H                     5.6371   -3.3839   -3.6408 
 H                     6.4606   -2.6896   -5.0299 
 H                     7.7191   -1.7425   -3.2516 
 H                     6.2567   -1.4054   -2.2928 
 H                     6.6348   -1.2998   -6.9769 
 H                     5.5935   -0.6465   -8.1951 
 H                     4.0003   -2.1833   -7.9562 
 H                     5.7824   -5.8673   -8.4432 
 H                     4.2832   -6.5687   -7.8004 
 H                     5.5773   -6.1217   -6.6711 
 H                     2.0386   -3.6274   -7.2432 
 H                     1.4614   -4.5904   -5.8881 
 H                     0.9188   -2.905    -6.0813 
 
 Stoichiometry    C45H56N4O5
 Framework group  C1[X(C45H56N4O5)]
 Deg. of freedom   324
 Full point group                 C1      NOp   1
 Largest Abelian subgroup         C1      NOp   1
 Largest concise Abelian subgroup C1      NOp   1
                         Standard orientation:                         
 ---------------------------------------------------------------------
 Center     Atomic      Atomic             Coordinates (Angstroms)
 Number     Number       Type             X           Y           Z
 ---------------------------------------------------------------------
      1          6           0        2.205638    0.160459    1.830828
      2          6           0        1.155085   -0.652703    2.275381
      3          6           0        1.119046   -2.009969    1.891368
      4          6           0        2.112894   -2.562236    1.073407
      5          6           0        3.137336   -1.748980    0.621837
      6          6           0        3.180805   -0.400625    1.018768
      7          7           0        4.208250   -2.089561   -0.248540
      8          6           0        4.440200    0.224198    0.472085
      9          6           0        4.647832   -0.760926   -0.744663
     10          6           0        4.432176    1.670118   -0.045740
     11          6           0        3.697162   -0.310218   -1.938684
     12          6           0        4.047377    1.100683   -2.427454
     13          6           0        5.083941    1.720121   -1.470134
     14          7           0        5.111843    2.443668    0.996075
     15          6           0        5.538882    3.777130    0.598888
     16          6           0        6.224665    3.860381   -0.764342
     17          6           0        5.393626    3.175483   -1.849195
     18          6           0        5.460490    0.233463    1.636181
     19          6           0        6.133036    1.599485    1.597001
     20          6           0        6.364808    0.828733   -1.610910
     21          6           0        6.065987   -0.670361   -1.335327
     22          6           0        7.181025   -1.345652   -0.556323
     23          8           0        8.061309   -0.760324    0.062562
     24          8           0        7.120347   -2.698838   -0.702759
     25          6           0        8.112161   -3.412811    0.034457
     26          6           0        3.979490   -3.200117   -1.160133
     27          6           0        0.060367   -0.076248    3.143438
     28          6           0       -1.045637    0.580856    2.348733
     29          6           0       -2.074095   -0.197023    1.800482
     30          6           0       -1.039013    1.973747    2.131236
     31          6           0       -2.032827    2.593603    1.363983
     32          6           0       -3.031406    1.815101    0.804215
     33          6           0       -3.061803    0.432344    1.056864
     34          7           0       -4.080647    2.228917   -0.062185
     35          6           0       -4.297813   -0.143824    0.413566
     36          6           0       -4.493265    0.956273   -0.701075
     37          6           0       -4.240461   -1.521099   -0.242965
     38          6           0       -3.521041    0.622631   -1.913619
     39          6           0       -3.878728   -0.730836   -2.549427
     40          6           0       -4.903906   -1.461065   -1.649304
     41          7           0       -4.834746   -2.536844    0.741622
     42          6           0       -6.097236   -3.182431    0.225154
     43          6           0       -5.954932   -3.752665   -1.178985
     44          6           0       -5.161862   -2.882047   -2.154648
     45          6           0       -5.358463   -0.317088    1.508416
     46          6           0       -5.131740   -1.737599    1.992693
     47          6           0       -6.194708   -0.569469   -1.702422
     48          6           0       -5.897667    0.914798   -1.331180
     49          6           0       -7.028544    1.564011   -0.546895
     50          8           0       -7.951355    0.956909   -0.017560
     51          8           0       -6.931121    2.921075   -0.586993
     52          6           0       -7.947126    3.606205    0.145587
     53          6           0       -3.822303    3.420472   -0.860140
     54          8           0       -3.917756   -3.517156    1.027234
     55          1           0        2.271601    1.203545    2.125888
     56          1           0        0.304744   -2.649305    2.228672
     57          1           0        2.057672   -3.609534    0.800122
     58          1           0        3.405297    2.054345   -0.114572
     59          1           0        3.780118   -1.007847   -2.782065
     60          1           0        2.639630   -0.332870   -1.647527
     61          1           0        4.441853    1.055620   -3.450460
     62          1           0        3.136268    1.710029   -2.476466
     63          1           0        4.645702    4.414603    0.569008
     64          1           0        6.184798    4.218076    1.367891
     65          1           0        6.367938    4.913818   -1.032462
     66          1           0        7.224931    3.417273   -0.709802
     67          1           0        4.457503    3.733472   -1.981933
     68          1           0        5.924647    3.223786   -2.807310
     69          1           0        6.171618   -0.591634    1.619957
     70          1           0        4.953075    0.151941    2.608542
     71          1           0        6.383744    1.937360    2.608337
     72          1           0        7.061353    1.572751    1.024228
     73          1           0        6.745812    0.911626   -2.639052
     74          1           0        7.179746    1.205343   -0.992513
     75          1           0        6.081830   -1.173858   -2.314352
     76          1           0        9.111834   -3.174389   -0.341610
     77          1           0        8.034760   -3.188101    1.103017
     78          1           0        7.934497   -4.482368   -0.106920
     79          1           0        3.043238   -3.088887   -1.718671
     80          1           0        3.949419   -4.146512   -0.609583
     81          1           0        4.794112   -3.279857   -1.886468
     82          1           0       -0.366617   -0.862922    3.779895
     83          1           0        0.495220    0.645000    3.848232
     84          1           0       -2.092033   -1.273672    1.953318
     85          1           0       -0.243658    2.584647    2.553339
     86          1           0       -1.996067    3.665536    1.208239
     87          1           0       -3.196582   -1.848208   -0.356265
     88          1           0       -3.576382    1.402243   -2.684007
     89          1           0       -2.470983    0.601297   -1.596387
     90          1           0       -2.965716   -1.325057   -2.680330
     91          1           0       -4.290278   -0.575295   -3.554809
     92          1           0       -6.343659   -3.980340    0.936874
     93          1           0       -6.896305   -2.441414    0.287221
     94          1           0       -5.473946   -4.737396   -1.123826
     95          1           0       -6.957781   -3.935641   -1.583476
     96          1           0       -4.197843   -3.377151   -2.335705
     97          1           0       -5.668357   -2.863673   -3.127635
     98          1           0       -5.289360    0.404565    2.329346
     99          1           0       -6.372400   -0.274523    1.122836
    100          1           0       -5.997820   -2.174122    2.499202
    101          1           0       -4.258629   -1.820756    2.647171
    102          1           0       -6.991522   -0.981217   -1.083965
    103          1           0       -6.601377   -0.587644   -2.723479
    104          1           0       -5.884304    1.473035   -2.280170
    105          1           0       -8.929353    3.419704   -0.299498
    106          1           0       -7.739257    4.678323    0.090761
    107          1           0       -7.933287    3.304735    1.197752
    108          1           0       -4.602294    3.560092   -1.614810
    109          1           0       -3.827772    4.313276   -0.225690
    110          1           0       -2.860404    3.365741   -1.382708
 ---------------------------------------------------------------------
 Rotational constants (GHZ):           0.1056711           0.0248158           0.0228064
 Standard basis: STO-3G (5D, 7F)
 There are   326 symmetry adapted cartesian basis functions of A   symmetry.
 There are   326 symmetry adapted basis functions of A   symmetry.
   326 basis functions,   978 primitive gaussians,   326 cartesian basis functions
   197 alpha electrons      197 beta electrons
       nuclear repulsion energy      7822.7887067416 Hartrees.
 NAtoms=  110 NActive=  110 NUniq=  110 SFac= 1.00D+00 NAtFMM=   60 NAOKFM=T Big=T
 Integral buffers will be    131072 words long.
 Raffenetti 1 integral format.
 Two-electron integral symmetry is turned on.
 One-electron integrals computed using PRISM.
 NBasis=   326 RedAO= T EigKep=  1.73D-01  NBF=   326
 NBsUse=   326 1.00D-06 EigRej= -1.00D+00 NBFU=   326
 ExpMin= 1.69D-01 ExpMax= 1.31D+02 ExpMxC= 1.31D+02 IAcc=3 IRadAn=         5 AccDes= 0.00D+00
 Harris functional with IExCor=  205 and IRadAn=       5 diagonalized for initial guess.
 HarFok:  IExCor=  205 AccDes= 0.00D+00 IRadAn=         5 IDoV= 1 UseB2=F ITyADJ=14
 ICtDFT=  3500011 ScaDFX=  1.000000  1.000000  1.000000  1.000000
 FoFCou: FMM=F IPFlag=           0 FMFlag=      100000 FMFlg1=        2001
         NFxFlg=           0 DoJE=T BraDBF=F KetDBF=T FulRan=T
         wScrn=  0.000000 ICntrl=       500 IOpCl=  0 I1Cent=   200000004 NGrid=           0
         NMat0=    1 NMatS0=      1 NMatT0=    0 NMatD0=    1 NMtDS0=    0 NMtDT0=    0
 Petite list used in FoFCou.
 Requested convergence on RMS density matrix=1.00D-08 within 128 cycles.
 Requested convergence on MAX density matrix=1.00D-06.
 Requested convergence on             energy=1.00D-06.
 No special actions if energy rises.
 Integral accuracy reduced to 1.0D-05 until final iterations.
 Initial convergence to 1.0D-05 achieved.  Increase integral accuracy.
 SCF Done:  E(RHF) =  -2300.22122409     A.U. after   15 cycles
            NFock= 15  Conv=0.98D-08     -V/T= 2.0092
 Range of M.O.s used for correlation:     1   326
 NBasis=   326 NAE=   197 NBE=   197 NFC=     0 NFV=     0
 NROrb=    326 NOA=   197 NOB=   197 NVA=   129 NVB=   129
          Differentiating once with respect to magnetic field using GIAOs.
          Electric field/nuclear overlap derivatives assumed to be zero.
 FoFCou: FMM=F IPFlag=           0 FMFlag=      100000 FMFlg1=        2001
         NFxFlg=           0 DoJE=F BraDBF=F KetDBF=T FulRan=T
         wScrn=  0.000000 ICntrl=      6100 IOpCl=  0 I1Cent=           7 NGrid=         110
         NMat0=    1 NMatS0=      1 NMatT0=    0 NMatD0=    1 NMtDS0=    0 NMtDT0=    0
 Symmetry not used in FoFCou.
 FoFJK:  IHMeth= 1 ICntrl=    6127 DoSepK=F KAlg= 0 I1Cent=           0 FoldK=F
 IRaf=         1 NMat=       1 IRICut=       1 DoRegI=T DoRafI=F ISym2E= 0 IDoP0=0 IntGTp=1.
          There are     3 degrees of freedom in the 1st order CPHF.  IDoFFX=0 NUNeed=     3.
      3 vectors produced by pass  0 Test12= 8.47D-13 3.33D-08 XBig12= 2.34D+02 2.55D+00.
 AX will form     3 AO Fock derivatives at one time.
      3 vectors produced by pass  1 Test12= 8.47D-13 3.33D-08 XBig12= 7.97D-01 3.24D-01.
      3 vectors produced by pass  2 Test12= 8.47D-13 3.33D-08 XBig12= 1.97D-02 3.91D-02.
      3 vectors produced by pass  3 Test12= 8.47D-13 3.33D-08 XBig12= 4.75D-04 7.63D-03.
      3 vectors produced by pass  4 Test12= 8.47D-13 3.33D-08 XBig12= 2.35D-05 1.32D-03.
      3 vectors produced by pass  5 Test12= 8.47D-13 3.33D-08 XBig12= 4.28D-07 7.87D-05.
      3 vectors produced by pass  6 Test12= 8.47D-13 3.33D-08 XBig12= 1.10D-08 1.79D-05.
      3 vectors produced by pass  7 Test12= 8.47D-13 3.33D-08 XBig12= 3.70D-10 3.66D-06.
      3 vectors produced by pass  8 Test12= 8.47D-13 3.33D-08 XBig12= 8.35D-12 3.81D-07.
      2 vectors produced by pass  9 Test12= 8.47D-13 3.33D-08 XBig12= 1.53D-13 6.76D-08.
 InvSVY:  IOpt=1 It=  1 EMax= 5.33D-15
 Solved reduced A of dimension    29 with     3 vectors.
 Calculating GIAO nuclear magnetic shielding tensors.
 SCF GIAO Magnetic shielding tensor (ppm):
      1  C    Isotropic =   124.4267   Anisotropy =   148.3223
   XX=   144.3041   YX=   -24.0133   ZX=    45.1774
   XY=   -16.3351   YY=    45.4070   ZY=   -43.5515
   XZ=    38.8913   YZ=   -44.5525   ZZ=   183.5690
   Eigenvalues:    31.9765   117.9955   223.3082
      2  C    Isotropic =   120.8562   Anisotropy =   157.1317
   XX=   108.2129   YX=    -7.7003   ZX=    78.5012
   XY=    -0.9075   YY=    96.9714   ZY=   -38.6937
   XZ=    81.6416   YZ=   -39.0797   ZZ=   157.3843
   Eigenvalues:    41.1969    95.7611   225.6107
      3  C    Isotropic =   118.7655   Anisotropy =   153.8116
   XX=    94.7314   YX=   -46.1050   ZX=    70.2116
   XY=   -50.2286   YY=    85.5214   ZY=    -8.3915
   XZ=    66.1905   YZ=    -2.9515   ZZ=   176.0438
   Eigenvalues:    27.5026   107.4873   221.3066
      4  C    Isotropic =   133.4517   Anisotropy =   143.6860
   XX=   150.7219   YX=   -18.5626   ZX=    47.7943
   XY=   -22.3533   YY=    62.3477   ZY=   -35.3736
   XZ=    42.4718   YZ=   -42.8412   ZZ=   187.2857
   Eigenvalues:    50.4981   120.6147   229.2424
      5  C    Isotropic =   108.7547   Anisotropy =   127.0437
   XX=    99.4056   YX=    -8.7290   ZX=    63.8076
   XY=     6.1739   YY=    90.1491   ZY=   -38.0790
   XZ=    62.3220   YZ=   -37.4750   ZZ=   136.7092
   Eigenvalues:    41.2396    91.5739   193.4504
      6  C    Isotropic =   117.6980   Anisotropy =   139.7556
   XX=   104.3441   YX=   -24.5084   ZX=    61.2747
   XY=   -36.1956   YY=    77.8918   ZY=   -14.2964
   XZ=    57.5449   YZ=   -10.3282   ZZ=   170.8581
   Eigenvalues:    51.4595    90.7661   210.8684
      7  N    Isotropic =   274.2068   Anisotropy =    82.0553
   XX=   280.5197   YX=    -8.2955   ZX=   -48.8930
   XY=     5.1124   YY=   249.5297   ZY=   -10.5518
   XZ=   -34.5259   YZ=    -3.2954   ZZ=   292.5712
   Eigenvalues:   240.6245   253.0857   328.9104
      8  C    Isotropic =   195.8517   Anisotropy =    12.9595
   XX=   194.8810   YX=     3.1812   ZX=     3.7675
   XY=    -3.9002   YY=   203.8046   ZY=     1.1449
   XZ=     4.0751   YZ=     5.2937   ZZ=   188.8694
   Eigenvalues:   186.3978   196.6659   204.4913
      9  C    Isotropic =   181.1504   Anisotropy =    44.4132
   XX=   168.1175   YX=     6.1605   ZX=    -6.5827
   XY=    13.8058   YY=   207.4788   ZY=    -4.0063
   XZ=   -22.6977   YZ=    -1.0926   ZZ=   167.8548
   Eigenvalues:   152.8221   179.8698   210.7592
     10  C    Isotropic =   190.2793   Anisotropy =    29.6665
   XX=   184.4357   YX=    11.3894   ZX=     8.4982
   XY=    14.9092   YY=   194.3042   ZY=     6.1544
   XZ=    11.8397   YZ=     5.8012   ZZ=   192.0981
   Eigenvalues:   173.6446   187.1364   210.0570
     11  C    Isotropic =   213.9222   Anisotropy =    18.7759
   XX=   213.4862   YX=     2.2203   ZX=     9.8227
   XY=    -4.7666   YY=   211.2805   ZY=    -6.3991
   XZ=     8.5595   YZ=    -5.0408   ZZ=   216.9999
   Eigenvalues:   204.5614   210.7657   226.4395
     12  C    Isotropic =   212.9597   Anisotropy =    21.0278
   XX=   215.1525   YX=     6.4387   ZX=     9.3484
   XY=     8.0107   YY=   213.1952   ZY=     5.2014
   XZ=     7.9536   YZ=     3.7015   ZZ=   210.5315
   Eigenvalues:   203.7501   208.1508   226.9783
     13  C    Isotropic =   213.7413   Anisotropy =     8.2523
   XX=   214.7813   YX=    -1.3169   ZX=     2.4619
   XY=    -2.8980   YY=   215.0774   ZY=    -5.4052
   XZ=    -1.6528   YZ=    -4.1837   ZZ=   211.3651
   Eigenvalues:   207.9660   214.0151   219.2428
     14  N    Isotropic =   302.8680   Anisotropy =    55.0295
   XX=   291.1748   YX=    -1.4359   ZX=    49.8224
   XY=    11.9266   YY=   331.2497   ZY=    -5.7635
   XZ=    46.3186   YZ=     8.5171   ZZ=   286.1795
   Eigenvalues:   240.4664   328.5833   339.5543
     15  C    Isotropic =   205.2867   Anisotropy =    34.6437
   XX=   191.4562   YX=     9.9067   ZX=    -6.2164
   XY=     5.5768   YY=   225.5416   ZY=    -5.2158
   XZ=    -5.6911   YZ=    -4.0827   ZZ=   198.8622
   Eigenvalues:   187.5465   199.9311   228.3825
     16  C    Isotropic =   224.2065   Anisotropy =     8.6111
   XX=   220.1288   YX=     0.2053   ZX=     0.7315
   XY=     5.4098   YY=   225.7170   ZY=     3.0610
   XZ=    -0.2242   YZ=     3.3832   ZZ=   226.7736
   Eigenvalues:   218.8140   223.8582   229.9472
     17  C    Isotropic =   215.3062   Anisotropy =    20.0676
   XX=   210.0676   YX=     6.3287   ZX=     0.6723
   XY=     3.2122   YY=   227.4316   ZY=     1.1652
   XZ=     1.1734   YZ=    -3.2112   ZZ=   208.4194
   Eigenvalues:   207.4476   209.7865   228.6846
     18  C    Isotropic =   210.5672   Anisotropy =    37.7200
   XX=   214.9544   YX=    19.1519   ZX=    17.6992
   XY=    11.1310   YY=   204.0524   ZY=    -1.0270
   XZ=    17.8473   YZ=     0.4674   ZZ=   212.6946
   Eigenvalues:   187.7924   208.1952   235.7138
     19  C    Isotropic =   199.7028   Anisotropy =    42.4086
   XX=   197.4847   YX=    -7.1660   ZX=    22.8597
   XY=   -10.3161   YY=   212.4855   ZY=   -13.7504
   XZ=    17.0295   YZ=   -11.4126   ZZ=   189.1382
   Eigenvalues:   172.4154   198.7178   227.9752
     20  C    Isotropic =   212.2673   Anisotropy =    21.3971
   XX=   214.3486   YX=    -8.4985   ZX=    -3.5531
   XY=    -9.3099   YY=   219.6827   ZY=    -4.7184
   XZ=    -4.3300   YZ=    -6.5869   ZZ=   202.7706
   Eigenvalues:   198.1410   212.1289   226.5321
     21  C    Isotropic =   209.0976   Anisotropy =    10.8775
   XX=   215.2363   YX=    -7.6293   ZX=    -0.3885
   XY=     0.5380   YY=   204.5683   ZY=    -4.8731
   XZ=    -2.3007   YZ=    -7.4419   ZZ=   207.4882
   Eigenvalues:   198.8954   212.0482   216.3492
     22  C    Isotropic =    96.3893   Anisotropy =    99.3508
   XX=   132.5031   YX=    58.5084   ZX=   -17.1484
   XY=    76.4462   YY=    11.1797   ZY=    43.6775
   XZ=   -16.6801   YZ=    29.2051   ZZ=   145.4852
   Eigenvalues:   -28.1864   154.7311   162.6232
     23  O    Isotropic =  -134.5071   Anisotropy =   887.1882
   XX=  -185.7912   YX=   -95.0577   ZX=  -443.2629
   XY=   -79.9414   YY=  -377.0124   ZY=  -100.4089
   XZ=  -428.1195   YZ=  -105.7604   ZZ=   159.2823
   Eigenvalues:  -570.2984  -290.1745   456.9517
     24  O    Isotropic =   283.9499   Anisotropy =   139.3040
   XX=   201.3353   YX=   102.5707   ZX=  -114.1194
   XY=   -23.2305   YY=   367.1851   ZY=   -11.7355
   XZ=  -101.0069   YZ=    68.9370   ZZ=   283.3293
   Eigenvalues:   117.6410   357.3896   376.8192
     25  C    Isotropic =   197.3319   Anisotropy =    57.7657
   XX=   204.9990   YX=   -22.5980   ZX=    17.6822
   XY=   -22.6327   YY=   196.0986   ZY=   -15.3833
   XZ=    18.2270   YZ=   -14.8163   ZZ=   190.8979
   Eigenvalues:   177.4559   178.6974   235.8423
     26  C    Isotropic =   209.8880   Anisotropy =    40.6314
   XX=   199.8227   YX=     3.0982   ZX=     3.6925
   XY=     0.9387   YY=   222.3548   ZY=    20.5521
   XZ=     4.7089   YZ=    20.0294   ZZ=   207.4865
   Eigenvalues:   192.5520   200.1364   236.9756
     27  C    Isotropic =   206.3282   Anisotropy =    15.8318
   XX=   213.6986   YX=    -6.8953   ZX=    -0.1940
   XY=    -7.0670   YY=   201.5478   ZY=     0.1606
   XZ=    -0.2425   YZ=     0.1165   ZZ=   203.7383
   Eigenvalues:   198.3684   203.7335   216.8827
     28  C    Isotropic =   119.9777   Anisotropy =   158.7724
   XX=   107.2088   YX=     2.9474   ZX=   -81.4846
   XY=     7.9156   YY=    86.8536   ZY=    27.6726
   XZ=   -81.3293   YZ=    27.3975   ZZ=   165.8706
   Eigenvalues:    40.6892    93.4179   225.8260
     29  C    Isotropic =   123.5403   Anisotropy =   150.1450
   XX=   143.6751   YX=   -13.6912   ZX=   -51.2451
   XY=    -4.3377   YY=    34.6776   ZY=    23.5487
   XZ=   -41.9450   YZ=    22.2512   ZZ=   192.2681
   Eigenvalues:    31.3610   115.6228   223.6370
     30  C    Isotropic =   118.7263   Anisotropy =   153.5705
   XX=    97.2441   YX=   -37.7669   ZX=   -76.8391
   XY=   -42.3364   YY=    84.9722   ZY=    -5.0559
   XZ=   -72.1192   YZ=    -9.0148   ZZ=   173.9626
   Eigenvalues:    26.7267   108.3456   221.1066
     31  C    Isotropic =   133.6471   Anisotropy =   143.4077
   XX=   153.0300   YX=   -12.7852   ZX=   -50.7207
   XY=   -15.2465   YY=    55.4839   ZY=    19.5454
   XZ=   -45.7619   YZ=    28.3560   ZZ=   192.4275
   Eigenvalues:    51.0277   120.6614   229.2522
     32  C    Isotropic =   108.5414   Anisotropy =   127.1680
   XX=   102.0363   YX=    -3.5918   ZX=   -66.6186
   XY=    11.8673   YY=    83.3078   ZY=    32.0477
   XZ=   -62.1581   YZ=    31.6569   ZZ=   140.2802
   Eigenvalues:    41.0486    91.2556   193.3201
     33  C    Isotropic =   120.8996   Anisotropy =   135.3647
   XX=   109.8648   YX=   -17.5061   ZX=   -61.9822
   XY=   -33.9970   YY=    83.9986   ZY=     0.5965
   XZ=   -65.6280   YZ=    -1.1392   ZZ=   168.8353
   Eigenvalues:    53.0385    98.5175   211.1427
     34  N    Isotropic =   273.9744   Anisotropy =    81.1588
   XX=   277.3048   YX=   -12.6871   ZX=    47.5628
   XY=     1.2800   YY=   248.9545   ZY=     6.0266
   XZ=    33.4663   YZ=    -2.2169   ZZ=   295.6638
   Eigenvalues:   240.9413   252.9016   328.0802
     35  C    Isotropic =   197.4986   Anisotropy =    14.3129
   XX=   192.2895   YX=     3.8631   ZX=    -1.9468
   XY=    -6.2870   YY=   204.6687   ZY=    -3.6192
   XZ=     0.9898   YZ=    -6.6776   ZZ=   195.5378
   Eigenvalues:   191.6729   193.7824   207.0406
     36  C    Isotropic =   180.7336   Anisotropy =    44.6039
   XX=   166.1763   YX=     5.0605   ZX=     6.9585
   XY=    11.9927   YY=   206.7399   ZY=     6.9077
   XZ=    24.7710   YZ=     4.2050   ZZ=   169.2847
   Eigenvalues:   151.6615   180.0698   210.4695
     37  C    Isotropic =   175.7578   Anisotropy =    56.5293
   XX=   169.6433   YX=     9.6736   ZX=   -22.5194
   XY=    11.0735   YY=   185.5702   ZY=   -24.1160
   XZ=   -18.7589   YZ=   -22.8412   ZZ=   172.0599
   Eigenvalues:   147.2546   166.5748   213.4440
     38  C    Isotropic =   213.7246   Anisotropy =    18.5914
   XX=   213.2768   YX=     3.2615   ZX=    -9.8231
   XY=    -4.1218   YY=   210.5362   ZY=     5.1780
   XZ=    -9.2370   YZ=     4.4297   ZZ=   217.3607
   Eigenvalues:   204.2618   210.7932   226.1188
     39  C    Isotropic =   212.0047   Anisotropy =    22.3395
   XX=   213.4098   YX=     7.2567   ZX=   -10.1575
   XY=     8.4786   YY=   213.8419   ZY=    -5.6468
   XZ=    -8.3340   YZ=    -3.5554   ZZ=   208.7624
   Eigenvalues:   201.3750   207.7414   226.8977
     40  C    Isotropic =   211.1223   Anisotropy =     9.0647
   XX=   208.9401   YX=     1.0068   ZX=     0.0877
   XY=     0.5425   YY=   212.7453   ZY=     4.2350
   XZ=     1.1037   YZ=     5.3795   ZZ=   211.6816
   Eigenvalues:   207.3733   208.8282   217.1655
     41  N    Isotropic =   226.9300   Anisotropy =    56.3783
   XX=   211.1349   YX=   -31.2726   ZX=   -12.1484
   XY=   -29.0128   YY=   246.1998   ZY=   -15.6870
   XZ=   -14.7826   YZ=   -13.4879   ZZ=   223.4555
   Eigenvalues:   184.4807   231.7938   264.5156
     42  C    Isotropic =   196.6819   Anisotropy =    47.6096
   XX=   211.1946   YX=    20.3281   ZX=    10.1342
   XY=    22.8477   YY=   185.1258   ZY=     8.0565
   XZ=    13.3646   YZ=     4.1333   ZZ=   193.7252
   Eigenvalues:   172.9299   188.6941   228.4216
     43  C    Isotropic =   221.7853   Anisotropy =    11.1160
   XX=   215.5670   YX=     8.6556   ZX=    -5.6636
   XY=     7.8242   YY=   223.6456   ZY=     1.5322
   XZ=    -4.5341   YZ=     3.0194   ZZ=   226.1433
   Eigenvalues:   208.6755   227.4845   229.1960
     44  C    Isotropic =   217.8145   Anisotropy =    21.4110
   XX=   211.4274   YX=     7.3767   ZX=    -1.1168
   XY=     2.9678   YY=   230.3172   ZY=     2.0093
   XZ=    -2.1220   YZ=     5.0161   ZZ=   211.6988
   Eigenvalues:   208.1956   213.1594   232.0885
     45  C    Isotropic =   214.0456   Anisotropy =    28.7320
   XX=   204.9660   YX=    -3.5609   ZX=   -19.2508
   XY=     5.3660   YY=   218.4900   ZY=    -1.7601
   XZ=   -18.2762   YZ=    -8.0123   ZZ=   218.6807
   Eigenvalues:   191.6846   217.2519   233.2002
     46  C    Isotropic =   186.8510   Anisotropy =    61.2212
   XX=   163.9749   YX=   -15.8808   ZX=    -4.9467
   XY=    -4.6104   YY=   187.1963   ZY=    27.4443
   XZ=   -11.7484   YZ=    21.5343   ZZ=   209.3817
   Eigenvalues:   160.0745   172.8133   227.6651
     47  C    Isotropic =   212.0896   Anisotropy =    23.6152
   XX=   215.2433   YX=    -9.3598   ZX=     2.5055
   XY=   -10.0424   YY=   219.6715   ZY=     5.7921
   XZ=     2.9525   YZ=     6.8447   ZZ=   201.3541
   Eigenvalues:   197.3675   211.0683   227.8331
     48  C    Isotropic =   208.4154   Anisotropy =    11.4627
   XX=   214.8839   YX=    -7.5722   ZX=    -0.3027
   XY=     0.0251   YY=   202.8788   ZY=     4.5406
   XZ=     2.0803   YZ=     6.9174   ZZ=   207.4837
   Eigenvalues:   198.2121   210.9769   216.0573
     49  C    Isotropic =    96.1111   Anisotropy =    98.6704
   XX=   133.1554   YX=    55.8051   ZX=    20.7008
   XY=    73.8571   YY=    14.6142   ZY=   -50.8726
   XZ=    21.0675   YZ=   -38.3717   ZZ=   140.5636
   Eigenvalues:   -28.3220   154.7638   161.8913
     50  O    Isotropic =  -131.6192   Anisotropy =   882.0403
   XX=  -226.1243   YX=  -134.0004   ZX=   415.5266
   XY=  -110.1186   YY=  -376.6443   ZY=    38.6408
   XZ=   406.3474   YZ=    49.1171   ZZ=   207.9110
   Eigenvalues:  -561.5960  -289.6692   456.4077
     51  O    Isotropic =   282.8661   Anisotropy =   138.5589
   XX=   192.1382   YX=   101.6199   ZX=   118.0162
   XY=   -25.6142   YY=   367.1361   ZY=    12.6130
   XZ=    95.2978   YZ=   -61.4101   ZZ=   289.3240
   Eigenvalues:   115.4237   357.9359   375.2387
     52  C    Isotropic =   197.2013   Anisotropy =    58.0843
   XX=   206.0190   YX=   -22.3579   ZX=   -18.2745
   XY=   -22.3888   YY=   194.7482   ZY=    15.0005
   XZ=   -18.7875   YZ=    14.5855   ZZ=   190.8367
   Eigenvalues:   177.2572   178.4225   235.9242
     53  C    Isotropic =   209.5113   Anisotropy =    41.0749
   XX=   199.8893   YX=     4.1836   ZX=    -3.3368
   XY=     2.0695   YY=   225.7240   ZY=   -19.1111
   XZ=    -4.5948   YZ=   -18.4757   ZZ=   202.9206
   Eigenvalues:   191.8513   199.7882   236.8946
     54  O    Isotropic =    26.9274   Anisotropy =   456.4768
   XX=    81.1686   YX=  -214.0102   ZX=    57.7671
   XY=  -208.6825   YY=   105.1325   ZY=   -97.2344
   XZ=    54.9834   YZ=   -91.3219   ZZ=  -105.5190
   Eigenvalues:  -149.2500  -101.2132   331.2452
     55  H    Isotropic =    25.6681   Anisotropy =    15.1107
   XX=    32.5988   YX=     1.1651   ZX=    -5.6628
   XY=     1.1640   YY=    22.2300   ZY=     0.5561
   XZ=    -7.2938   YZ=     0.8974   ZZ=    22.1756
   Eigenvalues:    18.6902    22.5722    35.7419
     56  H    Isotropic =    25.3276   Anisotropy =     5.9970
   XX=    27.1066   YX=    -1.6545   ZX=    -1.7842
   XY=    -0.9826   YY=    27.4968   ZY=     1.0156
   XZ=    -2.1479   YZ=     1.7409   ZZ=    21.3792
   Eigenvalues:    20.6368    26.0204    29.3256
     57  H    Isotropic =    26.4683   Anisotropy =     8.4093
   XX=    28.8006   YX=     1.6260   ZX=    -4.8506
   XY=     1.5858   YY=    27.5778   ZY=     0.0674
   XZ=    -5.0574   YZ=    -0.0050   ZZ=    23.0264
   Eigenvalues:    20.0862    27.2441    32.0744
     58  H    Isotropic =    31.6550   Anisotropy =    11.3920
   XX=    38.3947   YX=    -3.3686   ZX=    -1.4987
   XY=    -1.3080   YY=    29.7857   ZY=     0.8478
   XZ=    -2.2374   YZ=    -0.9208   ZZ=    26.7846
   Eigenvalues:    26.4369    29.2784    39.2496
     59  H    Isotropic =    32.2922   Anisotropy =    12.5205
   XX=    26.2217   YX=     1.5958   ZX=     3.1421
   XY=     2.0440   YY=    34.0360   ZY=     4.0960
   XZ=     1.3421   YZ=     5.0130   ZZ=    36.6188
   Eigenvalues:    25.6421    30.5952    40.6392
     60  H    Isotropic =    33.1916   Anisotropy =    11.5399
   XX=    40.6426   YX=     1.3906   ZX=     2.1538
   XY=     2.0409   YY=    28.2729   ZY=    -2.4955
   XZ=    -2.0894   YZ=    -2.3112   ZZ=    30.6593
   Eigenvalues:    26.6261    32.0638    40.8849
     61  H    Isotropic =    32.4641   Anisotropy =    14.4097
   XX=    27.1204   YX=     1.2750   ZX=    -0.5550
   XY=     1.2535   YY=    28.3030   ZY=    -0.7322
   XZ=    -0.9466   YZ=    -1.0116   ZZ=    41.9688
   Eigenvalues:    26.3142    29.0075    42.0706
     62  H    Isotropic =    32.7894   Anisotropy =    13.5875
   XX=    37.7472   YX=    -4.5234   ZX=     4.7631
   XY=    -3.8918   YY=    31.7730   ZY=    -2.7318
   XZ=     3.3864   YZ=    -3.2627   ZZ=    28.8479
   Eigenvalues:    26.7353    29.7851    41.8477
     63  H    Isotropic =    31.7866   Anisotropy =    14.5522
   XX=    31.7368   YX=    -5.3594   ZX=    -2.3295
   XY=    -6.3976   YY=    37.2522   ZY=     2.1968
   XZ=    -2.3906   YZ=     1.3033   ZZ=    26.3708
   Eigenvalues:    25.4515    28.4203    41.4881
     64  H    Isotropic =    31.7592   Anisotropy =    15.5575
   XX=    28.0285   YX=     5.3046   ZX=     4.5952
   XY=     4.7916   YY=    34.0591   ZY=     5.6925
   XZ=     3.8615   YZ=     5.1468   ZZ=    33.1901
   Eigenvalues:    24.9352    28.2117    42.1309
     65  H    Isotropic =    32.6468   Anisotropy =    17.9356
   XX=    27.3876   YX=     5.0362   ZX=    -0.8413
   XY=     5.5481   YY=    42.1794   ZY=    -3.3009
   XZ=    -1.0996   YZ=    -3.2866   ZZ=    28.3733
   Eigenvalues:    25.6858    27.6506    44.6039
     66  H    Isotropic =    32.5222   Anisotropy =    11.3392
   XX=    40.0367   YX=     0.7846   ZX=    -0.1352
   XY=     0.4529   YY=    30.7019   ZY=     0.0150
   XZ=    -0.3277   YZ=    -0.1632   ZZ=    26.8281
   Eigenvalues:    26.8230    30.6619    40.0817
     67  H    Isotropic =    32.7098   Anisotropy =    12.9283
   XX=    33.8258   YX=    -4.4010   ZX=     4.0772
   XY=    -4.4039   YY=    35.6541   ZY=    -3.3659
   XZ=     3.5716   YZ=    -3.6645   ZZ=    28.6494
   Eigenvalues:    26.4379    30.3628    41.3286
     68  H    Isotropic =    32.5213   Anisotropy =    14.4601
   XX=    28.1197   YX=     2.9762   ZX=    -5.0108
   XY=     2.6984   YY=    30.9371   ZY=    -3.2992
   XZ=    -4.7908   YZ=    -3.8206   ZZ=    38.5070
   Eigenvalues:    25.7267    29.6758    42.1613
     69  H    Isotropic =    32.9083   Anisotropy =    11.1105
   XX=    33.9106   YX=    -5.9447   ZX=     2.0615
   XY=    -6.0357   YY=    34.1181   ZY=    -0.7704
   XZ=     2.7069   YZ=     0.6731   ZZ=    30.6961
   Eigenvalues:    27.1793    31.2302    40.3152
     70  H    Isotropic =    32.2902   Anisotropy =    11.3700
   XX=    31.2259   YX=     4.1647   ZX=    -2.4561
   XY=     2.6820   YY=    26.4661   ZY=    -2.8987
   XZ=    -0.6509   YZ=    -0.3289   ZZ=    39.1786
   Eigenvalues:    24.6406    32.3598    39.8702
     71  H    Isotropic =    31.7859   Anisotropy =    16.0623
   XX=    28.6246   YX=     2.7460   ZX=     7.0001
   XY=     2.2000   YY=    28.6867   ZY=     2.1859
   XZ=     6.0263   YZ=     4.1095   ZZ=    38.0464
   Eigenvalues:    25.0746    27.7889    42.4941
     72  H    Isotropic =    31.9162   Anisotropy =     9.5994
   XX=    38.3108   YX=     0.3220   ZX=    -0.0889
   XY=    -0.0175   YY=    28.6731   ZY=    -0.1755
   XZ=     0.3937   YZ=     0.8817   ZZ=    28.7647
   Eigenvalues:    28.3629    29.0700    38.3158
     73  H    Isotropic =    32.2566   Anisotropy =    14.6148
   XX=    30.7946   YX=     0.5807   ZX=    -7.9230
   XY=     0.0226   YY=    29.6573   ZY=    -1.1390
   XZ=    -7.7106   YZ=    -1.8002   ZZ=    36.3179
   Eigenvalues:    25.1828    29.5873    41.9998
     74  H    Isotropic =    31.3670   Anisotropy =    10.1837
   XX=    36.6765   YX=     2.6547   ZX=     2.6899
   XY=     1.3665   YY=    30.4598   ZY=     1.8427
   XZ=     2.8678   YZ=     1.4953   ZZ=    26.9647
   Eigenvalues:    25.9284    30.0165    38.1561
     75  H    Isotropic =    31.2366   Anisotropy =    11.9865
   XX=    27.4060   YX=    -2.0725   ZX=    -3.3175
   XY=    -2.1872   YY=    32.0625   ZY=     4.3453
   XZ=    -2.2447   YZ=     5.4927   ZZ=    34.2412
   Eigenvalues:    26.3652    28.1170    39.2275
     76  H    Isotropic =    30.5589   Anisotropy =    11.8950
   XX=    37.7924   YX=    -2.5738   ZX=    -1.9892
   XY=    -1.8570   YY=    28.0234   ZY=    -0.4861
   XZ=    -1.5373   YZ=    -0.1628   ZZ=    25.8610
   Eigenvalues:    25.4236    27.7643    38.4889
     77  H    Isotropic =    30.6167   Anisotropy =     7.8635
   XX=    28.7493   YX=    -2.5932   ZX=     1.7632
   XY=    -2.7344   YY=    28.3814   ZY=    -0.7043
   XZ=     2.1643   YZ=    -1.7582   ZZ=    34.7195
   Eigenvalues:    25.8707    30.1205    35.8590
     78  H    Isotropic =    30.5211   Anisotropy =    11.8951
   XX=    28.3314   YX=    -2.3604   ZX=     0.5816
   XY=    -1.7103   YY=    38.0348   ZY=     0.1613
   XZ=     0.8235   YZ=    -0.4858   ZZ=    25.1970
   Eigenvalues:    25.0407    28.0714    38.4511
     79  H    Isotropic =    31.9401   Anisotropy =    11.2155
   XX=    33.8810   YX=     3.0201   ZX=     5.4341
   XY=     2.7169   YY=    30.9283   ZY=     2.6155
   XZ=     3.6581   YZ=     4.1141   ZZ=    31.0111
   Eigenvalues:    27.1456    29.2577    39.4172
     80  H    Isotropic =    30.7001   Anisotropy =    14.0202
   XX=    27.0299   YX=     0.8135   ZX=    -1.2851
   XY=     0.6462   YY=    39.7733   ZY=    -1.9888
   XZ=    -2.0359   YZ=    -1.5033   ZZ=    25.2972
   Eigenvalues:    24.2075    27.8459    40.0469
     81  H    Isotropic =    30.9275   Anisotropy =    10.6593
   XX=    31.3483   YX=    -0.5282   ZX=    -4.1149
   XY=    -1.1542   YY=    31.8188   ZY=     4.8174
   XZ=    -5.2852   YZ=     5.1788   ZZ=    29.6156
   Eigenvalues:    24.0201    30.7287    38.0338
     82  H    Isotropic =    29.7774   Anisotropy =     9.9330
   XX=    28.7808   YX=     2.8189   ZX=    -1.8430
   XY=     2.5176   YY=    30.1073   ZY=    -4.1425
   XZ=    -1.8878   YZ=    -5.4060   ZZ=    30.4442
   Eigenvalues:    25.3358    27.5971    36.3994
     83  H    Isotropic =    29.8406   Anisotropy =    10.0116
   XX=    28.9545   YX=     2.5504   ZX=     2.1806
   XY=     2.2688   YY=    29.2879   ZY=     4.0756
   XZ=     2.2973   YZ=     5.3663   ZZ=    31.2795
   Eigenvalues:    25.3735    27.6333    36.5150
     84  H    Isotropic =    25.2766   Anisotropy =    15.5640
   XX=    32.9809   YX=     1.0655   ZX=     5.4591
   XY=     0.9289   YY=    21.8661   ZY=    -0.4849
   XZ=     6.9674   YZ=    -0.7126   ZZ=    20.9828
   Eigenvalues:    18.1079    22.0692    35.6526
     85  H    Isotropic =    25.4424   Anisotropy =     5.8320
   XX=    26.8080   YX=    -1.8863   ZX=     1.5758
   XY=    -1.1068   YY=    27.9820   ZY=    -0.2473
   XZ=     2.2223   YZ=    -0.9226   ZZ=    21.5371
   Eigenvalues:    20.9228    26.0739    29.3303
     86  H    Isotropic =    26.5204   Anisotropy =     8.1897
   XX=    28.3842   YX=     1.0482   ZX=     4.9841
   XY=     1.1316   YY=    27.7570   ZY=     0.5333
   XZ=     5.3003   YZ=     0.6846   ZZ=    23.4199
   Eigenvalues:    20.1916    27.3894    31.9802
     87  H    Isotropic =    30.6927   Anisotropy =     9.0393
   XX=    35.9681   YX=    -3.4853   ZX=     1.1185
   XY=    -0.7595   YY=    28.6302   ZY=    -0.8376
   XZ=     1.6658   YZ=     1.2490   ZZ=    27.4798
   Eigenvalues:    27.0075    28.3517    36.7189
     88  H    Isotropic =    32.2608   Anisotropy =    12.6769
   XX=    26.2870   YX=     2.0706   ZX=    -3.2052
   XY=     2.2988   YY=    34.8634   ZY=    -4.3704
   XZ=    -1.3679   YZ=    -5.1411   ZZ=    35.6319
   Eigenvalues:    25.5933    30.4770    40.7120
     89  H    Isotropic =    33.1137   Anisotropy =    11.4006
   XX=    40.5126   YX=     1.3869   ZX=    -1.8640
   XY=     1.6508   YY=    27.6155   ZY=     1.9285
   XZ=     2.3866   YZ=     1.9125   ZZ=    31.2130
   Eigenvalues:    26.6617    31.9653    40.7141
     90  H    Isotropic =    32.5061   Anisotropy =    13.6255
   XX=    37.3203   YX=    -3.9452   ZX=    -5.3992
   XY=    -3.3566   YY=    30.7203   ZY=     2.9553
   XZ=    -3.9948   YZ=     3.6816   ZZ=    29.4777
   Eigenvalues:    26.4518    29.4767    41.5897
     91  H    Isotropic =    32.2735   Anisotropy =    14.4729
   XX=    26.9441   YX=     1.1975   ZX=     0.7633
   XY=     1.0810   YY=    28.0384   ZY=    -0.8881
   XZ=     1.1566   YZ=    -0.3744   ZZ=    41.8380
   Eigenvalues:    26.1434    28.7550    41.9222
     92  H    Isotropic =    30.8380   Anisotropy =    14.4806
   XX=    27.6441   YX=     7.0287   ZX=    -3.0883
   XY=     5.2913   YY=    33.6428   ZY=    -4.6118
   XZ=    -2.2827   YZ=    -4.4583   ZZ=    31.2270
   Eigenvalues:    23.7890    28.2332    40.4917
     93  H    Isotropic =    31.7877   Anisotropy =     7.6671
   XX=    36.8026   YX=    -0.4722   ZX=    -1.1425
   XY=     0.0145   YY=    31.1145   ZY=     0.9006
   XZ=    -0.6282   YZ=     0.1983   ZZ=    27.4460
   Eigenvalues:    27.2906    31.1734    36.8991
     94  H    Isotropic =    31.2323   Anisotropy =    16.1358
   XX=    25.6474   YX=    -2.0613   ZX=    -0.7586
   XY=    -2.4962   YY=    41.6091   ZY=     0.6692
   XZ=    -0.8441   YZ=     1.0791   ZZ=    26.4404
   Eigenvalues:    25.0014    26.7060    41.9895
     95  H    Isotropic =    32.2060   Anisotropy =    16.4485
   XX=    37.3529   YX=     7.1959   ZX=     4.6860
   XY=     6.3820   YY=    29.7900   ZY=     2.2606
   XZ=     4.1178   YZ=     2.5161   ZZ=    29.4752
   Eigenvalues:    25.7864    27.6600    43.1717
     96  H    Isotropic =    32.0103   Anisotropy =    13.3677
   XX=    34.0096   YX=    -4.1320   ZX=    -4.7475
   XY=    -4.1456   YY=    34.2563   ZY=     3.5173
   XZ=    -4.3076   YZ=     4.1269   ZZ=    27.7649
   Eigenvalues:    25.0635    30.0452    40.9221
     97  H    Isotropic =    32.3348   Anisotropy =    14.6565
   XX=    27.6597   YX=     2.9857   ZX=     4.9721
   XY=     2.4595   YY=    30.2014   ZY=     2.5619
   XZ=     4.7760   YZ=     3.3501   ZZ=    39.1435
   Eigenvalues:    25.2847    29.6140    42.1059
     98  H    Isotropic =    32.9052   Anisotropy =    11.6328
   XX=    29.9699   YX=    -0.1174   ZX=    -2.3741
   XY=    -0.5558   YY=    32.6385   ZY=     5.7729
   XZ=    -4.2703   YZ=     4.6400   ZZ=    36.1070
   Eigenvalues:    27.4092    30.6459    40.6604
     99  H    Isotropic =    32.5906   Anisotropy =    10.9051
   XX=    39.1024   YX=    -2.9272   ZX=     0.5644
   XY=    -2.0325   YY=    29.4471   ZY=    -1.1160
   XZ=     0.6887   YZ=    -4.4430   ZZ=    29.2223
   Eigenvalues:    26.4174    31.4937    39.8607
    100  H    Isotropic =    31.1763   Anisotropy =    13.5095
   XX=    30.2121   YX=     4.3820   ZX=    -5.6671
   XY=     2.8048   YY=    28.8468   ZY=    -1.5554
   XZ=    -5.9983   YZ=    -3.8530   ZZ=    34.4699
   Eigenvalues:    25.2549    28.0913    40.1826
    101  H    Isotropic =    30.3439   Anisotropy =    11.2493
   XX=    30.4116   YX=     1.2421   ZX=     4.6397
   XY=     1.2348   YY=    26.7597   ZY=    -1.3478
   XZ=     5.5662   YZ=    -4.9187   ZZ=    33.8605
   Eigenvalues:    23.7982    29.3902    37.8435
    102  H    Isotropic =    31.5408   Anisotropy =    10.0230
   XX=    36.7339   YX=     2.5018   ZX=    -2.5487
   XY=     1.5084   YY=    31.1596   ZY=    -1.8856
   XZ=    -2.7839   YZ=    -1.7616   ZZ=    26.7290
   Eigenvalues:    25.7296    30.6700    38.2228
    103  H    Isotropic =    32.1115   Anisotropy =    14.7472
   XX=    30.9926   YX=     0.0330   ZX=     8.2092
   XY=    -0.5548   YY=    29.2853   ZY=     0.6893
   XZ=     7.7495   YZ=     1.5991   ZZ=    36.0567
   Eigenvalues:    24.9697    29.4219    41.9430
    104  H    Isotropic =    31.2322   Anisotropy =    11.8367
   XX=    27.3610   YX=    -2.2237   ZX=     2.9918
   XY=    -2.3360   YY=    32.5833   ZY=    -4.5061
   XZ=     1.9160   YZ=    -5.4294   ZZ=    33.7523
   Eigenvalues:    26.4048    28.1685    39.1233
    105  H    Isotropic =    30.5490   Anisotropy =    11.9102
   XX=    37.5134   YX=    -2.8922   ZX=     2.3741
   XY=    -2.1988   YY=    28.0021   ZY=     0.5067
   XZ=     1.9950   YZ=     0.1744   ZZ=    26.1315
   Eigenvalues:    25.4231    27.7347    38.4891
    106  H    Isotropic =    30.4959   Anisotropy =    11.7675
   XX=    28.3840   YX=    -2.1340   ZX=    -0.6249
   XY=    -1.4357   YY=    37.9183   ZY=     0.7237
   XZ=    -0.7785   YZ=     1.3447   ZZ=    25.1854
   Eigenvalues:    25.0030    28.1438    38.3409
    107  H    Isotropic =    30.6061   Anisotropy =     7.9844
   XX=    28.9263   YX=    -2.4124   ZX=    -2.3012
   XY=    -2.4994   YY=    28.2089   ZY=     0.1695
   XZ=    -2.6718   YZ=     1.2426   ZZ=    34.6830
   Eigenvalues:    25.9303    29.9588    35.9290
    108  H    Isotropic =    30.9207   Anisotropy =    10.6166
   XX=    30.9667   YX=    -0.7190   ZX=     4.0431
   XY=    -1.4553   YY=    32.6339   ZY=    -4.6292
   XZ=     5.1787   YZ=    -4.9376   ZZ=    29.1615
   Eigenvalues:    24.1003    30.6634    37.9984
    109  H    Isotropic =    30.7016   Anisotropy =    13.9739
   XX=    26.9609   YX=     0.4824   ZX=     1.2959
   XY=     0.2323   YY=    39.3367   ZY=     3.2922
   XZ=     2.1217   YZ=     2.7419   ZZ=    25.8074
   Eigenvalues:    24.2228    27.8645    40.0176
    110  H    Isotropic =    31.9689   Anisotropy =    11.2436
   XX=    34.2477   YX=     3.6436   ZX=    -4.9950
   XY=     3.1542   YY=    31.5771   ZY=    -2.5272
   XZ=    -3.1380   YZ=    -4.0480   ZZ=    30.0820
   Eigenvalues:    27.1206    29.3214    39.4647
 End of Minotr F.D. properties file   721 does not exist.
 End of Minotr F.D. properties file   722 does not exist.
 End of Minotr F.D. properties file   788 does not exist.
 Hyperfine terms turned off by default for NAtoms > 100.

 **********************************************************************

            Population analysis using the SCF Density.

 **********************************************************************

 Orbital symmetries:
       Occupied  (A) (A) (A) (A) (A) (A) (A) (A) (A) (A) (A) (A)
                 (A) (A) (A) (A) (A) (A) (A) (A) (A) (A) (A) (A)
                 (A) (A) (A) (A) (A) (A) (A) (A) (A) (A) (A) (A)
                 (A) (A) (A) (A) (A) (A) (A) (A) (A) (A) (A) (A)
                 (A) (A) (A) (A) (A) (A) (A) (A) (A) (A) (A) (A)
                 (A) (A) (A) (A) (A) (A) (A) (A) (A) (A) (A) (A)
                 (A) (A) (A) (A) (A) (A) (A) (A) (A) (A) (A) (A)
                 (A) (A) (A) (A) (A) (A) (A) (A) (A) (A) (A) (A)
                 (A) (A) (A) (A) (A) (A) (A) (A) (A) (A) (A) (A)
                 (A) (A) (A) (A) (A) (A) (A) (A) (A) (A) (A) (A)
                 (A) (A) (A) (A) (A) (A) (A) (A) (A) (A) (A) (A)
                 (A) (A) (A) (A) (A) (A) (A) (A) (A) (A) (A) (A)
                 (A) (A) (A) (A) (A) (A) (A) (A) (A) (A) (A) (A)
                 (A) (A) (A) (A) (A) (A) (A) (A) (A) (A) (A) (A)
                 (A) (A) (A) (A) (A) (A) (A) (A) (A) (A) (A) (A)
                 (A) (A) (A) (A) (A) (A) (A) (A) (A) (A) (A) (A)
                 (A) (A) (A) (A) (A)
       Virtual   (A) (A) (A) (A) (A) (A) (A) (A) (A) (A) (A) (A)
                 (A) (A) (A) (A) (A) (A) (A) (A) (A) (A) (A) (A)
                 (A) (A) (A) (A) (A) (A) (A) (A) (A) (A) (A) (A)
                 (A) (A) (A) (A) (A) (A) (A) (A) (A) (A) (A) (A)
                 (A) (A) (A) (A) (A) (A) (A) (A) (A) (A) (A) (A)
                 (A) (A) (A) (A) (A) (A) (A) (A) (A) (A) (A) (A)
                 (A) (A) (A) (A) (A) (A) (A) (A) (A) (A) (A) (A)
                 (A) (A) (A) (A) (A) (A) (A) (A) (A) (A) (A) (A)
                 (A) (A) (A) (A) (A) (A) (A) (A) (A) (A) (A) (A)
                 (A) (A) (A) (A) (A) (A) (A) (A) (A) (A) (A) (A)
                 (A) (A) (A) (A) (A) (A) (A) (A) (A)
 The electronic state is 1-A.
 Alpha  occ. eigenvalues --  -20.31293 -20.30311 -20.25277 -20.24275 -19.91514
 Alpha  occ. eigenvalues --  -15.48122 -15.34132 -15.33062 -15.30208 -11.17296
 Alpha  occ. eigenvalues --  -11.16201 -11.11049 -11.10339 -11.10247 -11.09214
 Alpha  occ. eigenvalues --  -11.09036 -11.08618 -11.08481 -11.08304 -11.07472
 Alpha  occ. eigenvalues --  -11.07291 -11.07226 -11.07134 -11.06752 -11.06599
 Alpha  occ. eigenvalues --  -11.06094 -11.05958 -11.05743 -11.05592 -11.05588
 Alpha  occ. eigenvalues --  -11.05363 -11.05278 -11.05085 -11.04976 -11.04956
 Alpha  occ. eigenvalues --  -11.04945 -11.04661 -11.04118 -11.03991 -11.03918
 Alpha  occ. eigenvalues --  -11.03728 -11.03716 -11.03603 -11.03262 -11.02090
 Alpha  occ. eigenvalues --  -11.01964 -11.01940 -11.01874 -11.01561 -11.01443
 Alpha  occ. eigenvalues --  -11.01215 -11.01040 -11.00910 -11.00678  -1.38511
 Alpha  occ. eigenvalues --   -1.37531  -1.28343  -1.27952  -1.27330  -1.21551
 Alpha  occ. eigenvalues --   -1.20990  -1.18468  -1.11946  -1.09349  -1.08901
 Alpha  occ. eigenvalues --   -1.07370  -1.06235  -1.04576  -1.03560  -1.00787
 Alpha  occ. eigenvalues --   -1.00232  -0.98877  -0.98320  -0.97674  -0.96822
 Alpha  occ. eigenvalues --   -0.96461  -0.94283  -0.94115  -0.93921  -0.92457
 Alpha  occ. eigenvalues --   -0.92163  -0.91317  -0.91237  -0.89389  -0.87938
 Alpha  occ. eigenvalues --   -0.86628  -0.84914  -0.82784  -0.82415  -0.81627
 Alpha  occ. eigenvalues --   -0.80687  -0.79231  -0.79063  -0.78360  -0.77263
 Alpha  occ. eigenvalues --   -0.76861  -0.74790  -0.73612  -0.72985  -0.72074
 Alpha  occ. eigenvalues --   -0.71174  -0.69818  -0.69392  -0.69108  -0.66595
 Alpha  occ. eigenvalues --   -0.65598  -0.65397  -0.64614  -0.64560  -0.63857
 Alpha  occ. eigenvalues --   -0.62959  -0.61864  -0.61845  -0.61674  -0.60817
 Alpha  occ. eigenvalues --   -0.60754  -0.60280  -0.59530  -0.59339  -0.58738
 Alpha  occ. eigenvalues --   -0.58477  -0.58338  -0.58059  -0.57794  -0.57604
 Alpha  occ. eigenvalues --   -0.57044  -0.56814  -0.56380  -0.55951  -0.55663
 Alpha  occ. eigenvalues --   -0.55241  -0.55109  -0.54789  -0.54308  -0.54214
 Alpha  occ. eigenvalues --   -0.53719  -0.53550  -0.52935  -0.52816  -0.52178
 Alpha  occ. eigenvalues --   -0.51623  -0.51425  -0.51262  -0.50992  -0.50536
 Alpha  occ. eigenvalues --   -0.50457  -0.49772  -0.49604  -0.49304  -0.48998
 Alpha  occ. eigenvalues --   -0.48348  -0.48228  -0.47926  -0.47682  -0.47475
 Alpha  occ. eigenvalues --   -0.46929  -0.46683  -0.45915  -0.45739  -0.45477
 Alpha  occ. eigenvalues --   -0.45198  -0.44712  -0.44596  -0.44468  -0.44195
 Alpha  occ. eigenvalues --   -0.44096  -0.43611  -0.43148  -0.42719  -0.42583
 Alpha  occ. eigenvalues --   -0.42222  -0.41925  -0.41837  -0.41503  -0.41110
 Alpha  occ. eigenvalues --   -0.40628  -0.40083  -0.39331  -0.39050  -0.38162
 Alpha  occ. eigenvalues --   -0.37749  -0.37067  -0.36157  -0.35927  -0.34749
 Alpha  occ. eigenvalues --   -0.33903  -0.33784  -0.33010  -0.32617  -0.31643
 Alpha  occ. eigenvalues --   -0.27273  -0.26613  -0.25706  -0.21531  -0.20083
 Alpha  occ. eigenvalues --   -0.15143  -0.14888
 Alpha virt. eigenvalues --    0.26659   0.27215   0.27998   0.29573   0.29784
 Alpha virt. eigenvalues --    0.30777   0.46364   0.46867   0.48472   0.48774
 Alpha virt. eigenvalues --    0.49460   0.49936   0.50781   0.50846   0.52653
 Alpha virt. eigenvalues --    0.52907   0.54192   0.54496   0.55691   0.55965
 Alpha virt. eigenvalues --    0.56125   0.57404   0.58125   0.58383   0.58654
 Alpha virt. eigenvalues --    0.59201   0.59555   0.60000   0.60277   0.60448
 Alpha virt. eigenvalues --    0.61335   0.61835   0.62210   0.62402   0.62748
 Alpha virt. eigenvalues --    0.63405   0.63477   0.63822   0.64218   0.64367
 Alpha virt. eigenvalues --    0.64599   0.64847   0.65076   0.65121   0.65214
 Alpha virt. eigenvalues --    0.65445   0.65656   0.66085   0.66415   0.66871
 Alpha virt. eigenvalues --    0.67262   0.67426   0.67817   0.67869   0.68348
 Alpha virt. eigenvalues --    0.68856   0.68957   0.69160   0.69495   0.69664
 Alpha virt. eigenvalues --    0.69893   0.70046   0.70446   0.70746   0.70800
 Alpha virt. eigenvalues --    0.70956   0.71385   0.71506   0.71639   0.72118
 Alpha virt. eigenvalues --    0.73047   0.73162   0.73553   0.73934   0.74073
 Alpha virt. eigenvalues --    0.74332   0.74672   0.74962   0.75090   0.75204
 Alpha virt. eigenvalues --    0.75413   0.75457   0.75675   0.76239   0.76328
 Alpha virt. eigenvalues --    0.76582   0.77099   0.77167   0.77472   0.77772
 Alpha virt. eigenvalues --    0.78062   0.78349   0.78518   0.78840   0.79294
 Alpha virt. eigenvalues --    0.79534   0.79683   0.80059   0.80268   0.80740
 Alpha virt. eigenvalues --    0.80898   0.81472   0.81674   0.81820   0.82042
 Alpha virt. eigenvalues --    0.82794   0.83652   0.84432   0.84760   0.84911
 Alpha virt. eigenvalues --    0.85892   0.86701   0.86736   0.87289   0.87907
 Alpha virt. eigenvalues --    0.88104   0.89892   0.90741   0.92306   0.94081
 Alpha virt. eigenvalues --    0.94691   0.95461   0.98401   1.00610   1.01719
 Alpha virt. eigenvalues --    1.10642   1.12235   1.15835   1.16663
          Condensed to atoms (all electrons):
 Mulliken charges:
               1
     1  C   -0.073899
     2  C   -0.000303
     3  C   -0.061116
     4  C   -0.089614
     5  C    0.088738
     6  C   -0.013563
     7  N   -0.286553
     8  C    0.018291
     9  C    0.128236
    10  C    0.040773
    11  C   -0.114955
    12  C   -0.105470
    13  C    0.027892
    14  N   -0.291259
    15  C   -0.014625
    16  C   -0.108227
    17  C   -0.101919
    18  C   -0.105303
    19  C   -0.019483
    20  C   -0.110504
    21  C   -0.066345
    22  C    0.319730
    23  O   -0.277244
    24  O   -0.255277
    25  C   -0.055694
    26  C   -0.078951
    27  C   -0.109762
    28  C    0.002264
    29  C   -0.073864
    30  C   -0.060263
    31  C   -0.090395
    32  C    0.089634
    33  C   -0.019695
    34  N   -0.285781
    35  C    0.014572
    36  C    0.128635
    37  C    0.033925
    38  C   -0.115672
    39  C   -0.104001
    40  C    0.032513
    41  N   -0.073911
    42  C   -0.008174
    43  C   -0.101829
    44  C   -0.101888
    45  C   -0.120339
    46  C   -0.013137
    47  C   -0.111313
    48  C   -0.066022
    49  C    0.321193
    50  O   -0.278793
    51  O   -0.254568
    52  C   -0.055339
    53  C   -0.079227
    54  O   -0.455667
    55  H    0.063964
    56  H    0.061606
    57  H    0.060004
    58  H    0.056063
    59  H    0.050214
    60  H    0.054746
    61  H    0.047537
    62  H    0.049501
    63  H    0.053138
    64  H    0.061405
    65  H    0.053134
    66  H    0.050667
    67  H    0.049444
    68  H    0.050923
    69  H    0.063238
    70  H    0.063698
    71  H    0.056871
    72  H    0.051017
    73  H    0.050681
    74  H    0.067891
    75  H    0.064477
    76  H    0.071852
    77  H    0.074932
    78  H    0.077311
    79  H    0.055350
    80  H    0.072491
    81  H    0.075369
    82  H    0.060403
    83  H    0.058206
    84  H    0.076296
    85  H    0.058347
    86  H    0.059007
    87  H    0.092766
    88  H    0.052852
    89  H    0.057645
    90  H    0.056942
    91  H    0.051195
    92  H    0.087328
    93  H    0.060316
    94  H    0.076333
    95  H    0.059226
    96  H    0.064320
    97  H    0.054668
    98  H    0.072039
    99  H    0.070173
   100  H    0.074289
   101  H    0.093113
   102  H    0.065312
   103  H    0.055741
   104  H    0.066633
   105  H    0.073124
   106  H    0.078554
   107  H    0.075907
   108  H    0.076425
   109  H    0.072771
   110  H    0.056086
 Sum of Mulliken charges =  -0.00000
 Mulliken charges with hydrogens summed into heavy atoms:
               1
     1  C   -0.009935
     2  C   -0.000303
     3  C    0.000490
     4  C   -0.029610
     5  C    0.088738
     6  C   -0.013563
     7  N   -0.286553
     8  C    0.018291
     9  C    0.128236
    10  C    0.096836
    11  C   -0.009994
    12  C   -0.008432
    13  C    0.027892
    14  N   -0.291259
    15  C    0.099918
    16  C   -0.004426
    17  C   -0.001552
    18  C    0.021634
    19  C    0.088405
    20  C    0.008069
    21  C   -0.001867
    22  C    0.319730
    23  O   -0.277244
    24  O   -0.255277
    25  C    0.168401
    26  C    0.124258
    27  C    0.008847
    28  C    0.002264
    29  C    0.002431
    30  C   -0.001916
    31  C   -0.031387
    32  C    0.089634
    33  C   -0.019695
    34  N   -0.285781
    35  C    0.014572
    36  C    0.128635
    37  C    0.126691
    38  C   -0.005175
    39  C    0.004136
    40  C    0.032513
    41  N   -0.073911
    42  C    0.139470
    43  C    0.033730
    44  C    0.017100
    45  C    0.021874
    46  C    0.154264
    47  C    0.009741
    48  C    0.000611
    49  C    0.321193
    50  O   -0.278793
    51  O   -0.254568
    52  C    0.172247
    53  C    0.126056
    54  O   -0.455667
 Electronic spatial extent (au):  <R**2>=          46880.8263
 Charge=              0.0000 electrons
 Dipole moment (field-independent basis, Debye):
    X=             -1.9067    Y=              3.1155    Z=             -4.3210  Tot=              5.6580
 Quadrupole moment (field-independent basis, Debye-Ang):
   XX=           -282.9413   YY=           -303.8301   ZZ=           -294.9471
   XY=            -15.7627   XZ=              0.6507   YZ=              4.5942
 Traceless Quadrupole moment (field-independent basis, Debye-Ang):
   XX=             10.9649   YY=             -9.9239   ZZ=             -1.0410
   XY=            -15.7627   XZ=              0.6507   YZ=              4.5942
 Octapole moment (field-independent basis, Debye-Ang**2):
  XXX=           -160.0774  YYY=             57.9183  ZZZ=             -7.8948  XYY=             31.3011
  XXY=            -17.6387  XXZ=            -88.8270  XZZ=            -22.7800  YZZ=             -7.3216
  YYZ=            -28.5905  XYZ=            -18.6660
 Hexadecapole moment (field-independent basis, Debye-Ang**3):
 XXXX=         -45712.1088 YYYY=          -8482.5944 ZZZZ=          -4209.6245 XXXY=           -885.5215
 XXXZ=           -115.2541 YYYX=           -688.8122 YYYZ=             91.9028 ZZZX=            -20.9065
 ZZZY=            -14.9964 XXYY=          -8356.2006 XXZZ=          -8087.3767 YYZZ=          -2155.7272
 XXYZ=             36.7530 YYXZ=             74.9841 ZZXY=            -67.6757
 N-N= 7.822788706742D+03 E-N=-2.102153354953D+04  KE= 2.279172326480D+03
 ******************************Gaussian NBO Version 3.1******************************
             N A T U R A L   A T O M I C   O R B I T A L   A N D
          N A T U R A L   B O N D   O R B I T A L   A N A L Y S I S
 ******************************Gaussian NBO Version 3.1******************************
       /RESON  / : Allow strongly delocalized NBO set
       /NLMO   / : Form Natural Localized Molecular Orbitals
       /NMR /    : Analyze NMR Sheilding Tensor 

 Analyzing the SCF density

 Job title: pleiokomenine_C_1a                                              

 Storage needed:    355564 in NPA,    438187 in NBO,   2133784 in NLMO ( 104796000 available)
 GSVD:  LWork=     -108884 too small for GESVD, short by      536270 words or      536270 for optimal perf.


 NATURAL POPULATIONS:  Natural atomic orbital occupancies 
                                                          
   NAO  Atom  No  lang   Type(AO)    Occupancy      Energy
 ----------------------------------------------------------
     1    C    1  S      Cor( 1S)     1.99993     -10.93729
     2    C    1  S      Val( 2S)     1.07946      -0.16868
     3    C    1  px     Val( 2p)     0.99216       0.12160
     4    C    1  py     Val( 2p)     0.98604       0.15609
     5    C    1  pz     Val( 2p)     0.99752       0.06876
 
     6    C    2  S      Cor( 1S)     1.99990     -10.94701
     7    C    2  S      Val( 2S)     1.07689      -0.17378
     8    C    2  px     Val( 2p)     0.95987       0.13944
     9    C    2  py     Val( 2p)     0.96004       0.17531
    10    C    2  pz     Val( 2p)     0.99053       0.07784
 
    11    C    3  S      Cor( 1S)     1.99994     -10.93836
    12    C    3  S      Val( 2S)     1.08472      -0.17307
    13    C    3  px     Val( 2p)     0.98282       0.12626
    14    C    3  py     Val( 2p)     0.97358       0.16374
    15    C    3  pz     Val( 2p)     0.99108       0.07237
 
    16    C    4  S      Cor( 1S)     1.99993     -10.93208
    17    C    4  S      Val( 2S)     1.07191      -0.16425
    18    C    4  px     Val( 2p)     0.99775       0.12099
    19    C    4  py     Val( 2p)     0.98596       0.15910
    20    C    4  pz     Val( 2p)     1.03128       0.05988
 
    21    C    5  S      Cor( 1S)     1.99985     -10.98003
    22    C    5  S      Val( 2S)     1.05994      -0.17710
    23    C    5  px     Val( 2p)     0.90669       0.14715
    24    C    5  py     Val( 2p)     0.97340       0.14294
    25    C    5  pz     Val( 2p)     0.94809       0.07542
 
    26    C    6  S      Cor( 1S)     1.99990     -10.93903
    27    C    6  S      Val( 2S)     1.08360      -0.18055
    28    C    6  px     Val( 2p)     0.96620       0.13946
    29    C    6  py     Val( 2p)     0.96685       0.15272
    30    C    6  pz     Val( 2p)     1.00839       0.07387
 
    31    N    7  S      Cor( 1S)     1.99998     -15.26298
    32    N    7  S      Val( 2S)     1.40532      -0.58882
    33    N    7  px     Val( 2p)     1.44339      -0.12718
    34    N    7  py     Val( 2p)     1.11997       0.00830
    35    N    7  pz     Val( 2p)     1.30642      -0.07325
 
    36    C    8  S      Cor( 1S)     1.99996     -11.00161
    37    C    8  S      Val( 2S)     1.10930      -0.22691
    38    C    8  px     Val( 2p)     0.97925       0.08884
    39    C    8  py     Val( 2p)     0.95130       0.11129
    40    C    8  pz     Val( 2p)     0.94006       0.11163
 
    41    C    9  S      Cor( 1S)     1.99996     -11.04584
    42    C    9  S      Val( 2S)     1.11181      -0.25168
    43    C    9  px     Val( 2p)     0.92621       0.09561
    44    C    9  py     Val( 2p)     0.85111       0.11703
    45    C    9  pz     Val( 2p)     0.93943       0.09375
 
    46    C   10  S      Cor( 1S)     1.99993     -11.01388
    47    C   10  S      Val( 2S)     1.09693      -0.21538
    48    C   10  px     Val( 2p)     0.97596       0.08913
    49    C   10  py     Val( 2p)     0.93994       0.09492
    50    C   10  pz     Val( 2p)     0.91285       0.11747
 
    51    C   11  S      Cor( 1S)     1.99994     -10.97725
    52    C   11  S      Val( 2S)     1.10374      -0.21163
    53    C   11  px     Val( 2p)     1.00374       0.08666
    54    C   11  py     Val( 2p)     0.98399       0.08994
    55    C   11  pz     Val( 2p)     0.99380       0.08468
 
    56    C   12  S      Cor( 1S)     1.99996     -10.97597
    57    C   12  S      Val( 2S)     1.09117      -0.19806
    58    C   12  px     Val( 2p)     1.00282       0.08910
    59    C   12  py     Val( 2p)     0.98294       0.09015
    60    C   12  pz     Val( 2p)     0.99674       0.09254
 
    61    C   13  S      Cor( 1S)     1.99998     -11.00193
    62    C   13  S      Val( 2S)     1.10487      -0.22556
    63    C   13  px     Val( 2p)     0.94313       0.11104
    64    C   13  py     Val( 2p)     0.94379       0.11346
    65    C   13  pz     Val( 2p)     0.95807       0.10124
 
    66    N   14  S      Cor( 1S)     1.99999     -15.23503
    67    N   14  S      Val( 2S)     1.42288      -0.57714
    68    N   14  px     Val( 2p)     1.38799      -0.08513
    69    N   14  py     Val( 2p)     1.05828       0.05064
    70    N   14  pz     Val( 2p)     1.41050      -0.09579
 
    71    C   15  S      Cor( 1S)     1.99994     -11.00587
    72    C   15  S      Val( 2S)     1.06918      -0.18722
    73    C   15  px     Val( 2p)     1.00906       0.08465
    74    C   15  py     Val( 2p)     0.90208       0.11174
    75    C   15  pz     Val( 2p)     0.98086       0.09265
 
    76    C   16  S      Cor( 1S)     1.99997     -10.97497
    77    C   16  S      Val( 2S)     1.08096      -0.18838
    78    C   16  px     Val( 2p)     0.99852       0.09478
    79    C   16  py     Val( 2p)     1.01351       0.08804
    80    C   16  pz     Val( 2p)     0.98162       0.09394
 
    81    C   17  S      Cor( 1S)     1.99996     -10.97811
    82    C   17  S      Val( 2S)     1.08579      -0.19354
    83    C   17  px     Val( 2p)     1.00810       0.08979
    84    C   17  py     Val( 2p)     0.98064       0.09200
    85    C   17  pz     Val( 2p)     0.99360       0.09260
 
    86    C   18  S      Cor( 1S)     1.99995     -10.97067
    87    C   18  S      Val( 2S)     1.09206      -0.19120
    88    C   18  px     Val( 2p)     0.99806       0.09205
    89    C   18  py     Val( 2p)     0.99003       0.10205
    90    C   18  pz     Val( 2p)     0.99536       0.09417
 
    91    C   19  S      Cor( 1S)     1.99994     -10.99578
    92    C   19  S      Val( 2S)     1.07174      -0.18049
    93    C   19  px     Val( 2p)     0.94590       0.12152
    94    C   19  py     Val( 2p)     0.94524       0.09281
    95    C   19  pz     Val( 2p)     1.00331       0.08863
 
    96    C   20  S      Cor( 1S)     1.99992     -10.98187
    97    C   20  S      Val( 2S)     1.09959      -0.20965
    98    C   20  px     Val( 2p)     0.99585       0.08714
    99    C   20  py     Val( 2p)     0.95105       0.09406
   100    C   20  pz     Val( 2p)     1.02734       0.07701
 
   101    C   21  S      Cor( 1S)     1.99994     -11.00546
   102    C   21  S      Val( 2S)     1.11081      -0.23607
   103    C   21  px     Val( 2p)     0.98115       0.07755
   104    C   21  py     Val( 2p)     0.98498       0.07805
   105    C   21  pz     Val( 2p)     1.00731       0.06699
 
   106    C   22  S      Cor( 1S)     1.99991     -11.10910
   107    C   22  S      Val( 2S)     1.05486      -0.25793
   108    C   22  px     Val( 2p)     0.88117       0.09239
   109    C   22  py     Val( 2p)     0.79000       0.15590
   110    C   22  pz     Val( 2p)     0.87100       0.03586
 
   111    O   23  S      Cor( 1S)     1.99999     -20.09542
   112    O   23  S      Val( 2S)     1.80822      -1.05526
   113    O   23  px     Val( 2p)     1.41566      -0.15341
   114    O   23  py     Val( 2p)     1.75818      -0.27977
   115    O   23  pz     Val( 2p)     1.32940      -0.13900
 
   116    O   24  S      Cor( 1S)     1.99999     -20.21245
   117    O   24  S      Val( 2S)     1.72992      -1.02492
   118    O   24  px     Val( 2p)     1.59839      -0.26399
   119    O   24  py     Val( 2p)     1.23668      -0.10184
   120    O   24  pz     Val( 2p)     1.70189      -0.30982
 
   121    C   25  S      Cor( 1S)     1.99984     -11.04279
   122    C   25  S      Val( 2S)     1.07695      -0.22440
   123    C   25  px     Val( 2p)     0.92528       0.06934
   124    C   25  py     Val( 2p)     0.98488       0.04520
   125    C   25  pz     Val( 2p)     0.97832       0.05705
 
   126    C   26  S      Cor( 1S)     1.99992     -11.01053
   127    C   26  S      Val( 2S)     1.06533      -0.19108
   128    C   26  px     Val( 2p)     1.03317       0.06496
   129    C   26  py     Val( 2p)     0.94482       0.08299
   130    C   26  pz     Val( 2p)     0.97304       0.08090
 
   131    C   27  S      Cor( 1S)     1.99996     -10.97566
   132    C   27  S      Val( 2S)     1.08179      -0.18010
   133    C   27  px     Val( 2p)     0.99122       0.10115
   134    C   27  py     Val( 2p)     1.02315       0.09132
   135    C   27  pz     Val( 2p)     0.99119       0.10097
 
   136    C   28  S      Cor( 1S)     1.99991     -10.95337
   137    C   28  S      Val( 2S)     1.07790      -0.17998
   138    C   28  px     Val( 2p)     0.95921       0.13190
   139    C   28  py     Val( 2p)     0.95614       0.17664
   140    C   28  pz     Val( 2p)     0.99077       0.06750
 
   141    C   29  S      Cor( 1S)     1.99993     -10.94474
   142    C   29  S      Val( 2S)     1.08243      -0.17729
   143    C   29  px     Val( 2p)     0.98701       0.11476
   144    C   29  py     Val( 2p)     0.99167       0.15360
   145    C   29  pz     Val( 2p)     0.99277       0.05758
 
   146    C   30  S      Cor( 1S)     1.99994     -10.94710
   147    C   30  S      Val( 2S)     1.08404      -0.18106
   148    C   30  px     Val( 2p)     0.98192       0.11564
   149    C   30  py     Val( 2p)     0.97308       0.16109
   150    C   30  pz     Val( 2p)     0.99203       0.05970
 
   151    C   31  S      Cor( 1S)     1.99993     -10.94098
   152    C   31  S      Val( 2S)     1.07157      -0.17327
   153    C   31  px     Val( 2p)     1.00033       0.10828
   154    C   31  py     Val( 2p)     0.98330       0.15590
   155    C   31  pz     Val( 2p)     1.03309       0.04802
 
   156    C   32  S      Cor( 1S)     1.99985     -10.98993
   157    C   32  S      Val( 2S)     1.06019      -0.18713
   158    C   32  px     Val( 2p)     0.90755       0.13202
   159    C   32  py     Val( 2p)     0.96913       0.13883
   160    C   32  pz     Val( 2p)     0.94944       0.06587
 
   161    C   33  S      Cor( 1S)     1.99990     -10.94872
   162    C   33  S      Val( 2S)     1.08146      -0.19040
   163    C   33  px     Val( 2p)     0.96914       0.12750
   164    C   33  py     Val( 2p)     0.96441       0.14843
   165    C   33  pz     Val( 2p)     1.01797       0.05502
 
   166    N   34  S      Cor( 1S)     1.99998     -15.27375
   167    N   34  S      Val( 2S)     1.40709      -0.59993
   168    N   34  px     Val( 2p)     1.46568      -0.14597
   169    N   34  py     Val( 2p)     1.09535       0.00857
   170    N   34  pz     Val( 2p)     1.30623      -0.08510
 
   171    C   35  S      Cor( 1S)     1.99996     -11.01886
   172    C   35  S      Val( 2S)     1.10464      -0.24200
   173    C   35  px     Val( 2p)     0.98205       0.07172
   174    C   35  py     Val( 2p)     0.95338       0.09023
   175    C   35  pz     Val( 2p)     0.94690       0.08887
 
   176    C   36  S      Cor( 1S)     1.99996     -11.05867
   177    C   36  S      Val( 2S)     1.11064      -0.26350
   178    C   36  px     Val( 2p)     0.93052       0.08067
   179    C   36  py     Val( 2p)     0.85918       0.10061
   180    C   36  pz     Val( 2p)     0.92792       0.08677
 
   181    C   37  S      Cor( 1S)     1.99990     -11.03333
   182    C   37  S      Val( 2S)     1.12144      -0.25740
   183    C   37  px     Val( 2p)     0.99536       0.05549
   184    C   37  py     Val( 2p)     0.90209       0.08758
   185    C   37  pz     Val( 2p)     0.91633       0.08271
 
   186    C   38  S      Cor( 1S)     1.99994     -10.98795
   187    C   38  S      Val( 2S)     1.10465      -0.22309
   188    C   38  px     Val( 2p)     1.00390       0.07583
   189    C   38  py     Val( 2p)     0.98747       0.07854
   190    C   38  pz     Val( 2p)     0.99023       0.07458
 
   191    C   39  S      Cor( 1S)     1.99995     -10.98876
   192    C   39  S      Val( 2S)     1.09365      -0.21224
   193    C   39  px     Val( 2p)     1.00141       0.07794
   194    C   39  py     Val( 2p)     0.98325       0.07781
   195    C   39  pz     Val( 2p)     0.99273       0.08159
 
   196    C   40  S      Cor( 1S)     1.99998     -11.02306
   197    C   40  S      Val( 2S)     1.10339      -0.24296
   198    C   40  px     Val( 2p)     0.94614       0.09068
   199    C   40  py     Val( 2p)     0.95010       0.09527
   200    C   40  pz     Val( 2p)     0.94531       0.08572
 
   201    N   41  S      Cor( 1S)     1.99999     -15.42115
   202    N   41  S      Val( 2S)     1.40651      -0.66138
   203    N   41  px     Val( 2p)     1.20453      -0.10946
   204    N   41  py     Val( 2p)     1.21059      -0.11102
   205    N   41  pz     Val( 2p)     1.13801      -0.09683
 
   206    C   42  S      Cor( 1S)     1.99990     -11.03352
   207    C   42  S      Val( 2S)     1.08931      -0.23071
   208    C   42  px     Val( 2p)     0.87090       0.08862
   209    C   42  py     Val( 2p)     0.99826       0.05750
   210    C   42  pz     Val( 2p)     0.99610       0.05728
 
   211    C   43  S      Cor( 1S)     1.99996     -10.99171
   212    C   43  S      Val( 2S)     1.08058      -0.20111
   213    C   43  px     Val( 2p)     1.01922       0.07760
   214    C   43  py     Val( 2p)     1.01613       0.07126
   215    C   43  pz     Val( 2p)     0.95637       0.09346
 
   216    C   44  S      Cor( 1S)     1.99995     -10.98784
   217    C   44  S      Val( 2S)     1.08523      -0.20222
   218    C   44  px     Val( 2p)     1.02032       0.07535
   219    C   44  py     Val( 2p)     0.97106       0.08927
   220    C   44  pz     Val( 2p)     0.99419       0.08328
 
   221    C   45  S      Cor( 1S)     1.99995     -10.99220
   222    C   45  S      Val( 2S)     1.08933      -0.21249
   223    C   45  px     Val( 2p)     1.01134       0.07291
   224    C   45  py     Val( 2p)     0.98870       0.06823
   225    C   45  pz     Val( 2p)     1.00546       0.06412
 
   226    C   46  S      Cor( 1S)     1.99991     -11.02703
   227    C   46  S      Val( 2S)     1.09682      -0.23242
   228    C   46  px     Val( 2p)     1.03814       0.05210
   229    C   46  py     Val( 2p)     0.93150       0.07431
   230    C   46  pz     Val( 2p)     0.89549       0.07970
 
   231    C   47  S      Cor( 1S)     1.99992     -10.99695
   232    C   47  S      Val( 2S)     1.10119      -0.22574
   233    C   47  px     Val( 2p)     0.99084       0.07398
   234    C   47  py     Val( 2p)     0.95352       0.07797
   235    C   47  pz     Val( 2p)     1.02839       0.06198
 
   236    C   48  S      Cor( 1S)     1.99994     -11.01796
[...]
  104      -0.0686        0.9252      -0.9938        -1.0894       1.0208
  105       0.9489        1.7725      -0.8236        -0.1111       1.0601
  106       2.0757        4.1994      -2.1237         0.2355       1.8402
  107      26.5084       -0.7596      27.2679         0.7130      25.7954
  109      -0.1384        1.8945      -2.0329        -1.2879       1.1495
 Sum       29.9962       13.2390      16.7572        -4.1096      34.1058

 Contributions to Isotropic shielding for atom   96 (    32.0103 ppm):
                         Standard Origin              Atomic Origin
 NLMO      Total    Paramagnetic  Diamagnetic   Paramagnetic  Diamagnetic
   89      -0.2923        0.3987      -0.6910        -1.1526       0.8604
   95      -0.1908        1.0696      -1.2604        -1.0445       0.8537
   97       2.5137       -3.0902       5.6039         1.6366       0.8771
   98      -0.3671        0.7045      -1.0717        -0.2458      -0.1213
  102       0.4804       -1.3197       1.8001         0.2992       0.1812
  105       1.0728        0.8301       0.2427         0.0173       1.0555
  106      -0.0689       -2.8689       2.8000        -1.2840       1.2151
  108      25.8192        0.5902      25.2291         0.1912      25.6280
  109       1.6987        1.7290      -0.0302        -0.1343       1.8330
 Sum       30.6657       -1.9566      32.6224        -1.7169      32.3826

 Contributions to Isotropic shielding for atom   97 (    32.3348 ppm):
                         Standard Origin              Atomic Origin
 NLMO      Total    Paramagnetic  Diamagnetic   Paramagnetic  Diamagnetic
   97       1.3897        0.0276       1.3621         0.5868       0.8029
   98      -0.4171        1.7815      -2.1987        -1.4061       0.9890
  105       0.1130        4.6764      -4.5634        -0.8797       0.9926
  107      -0.0415       -1.5289       1.4873        -1.2207       1.1792
  108       2.4497        0.8418       1.6079         0.6613       1.7884
  109      26.3862       -0.4473      26.8335         0.5413      25.8450
  117      -0.0245       -1.0565       1.0320        -0.8685       0.8440
 Sum       29.8555        4.2946      25.5609        -2.5856      32.4411

 Contributions to Isotropic shielding for atom   98 (    32.9052 ppm):
                         Standard Origin              Atomic Origin
 NLMO      Total    Paramagnetic  Diamagnetic   Paramagnetic  Diamagnetic
   71      -1.0228        0.6415      -1.6643        -1.9572       0.9343
   80       0.0146        1.2021      -1.1875        -0.9282       0.9428
   85       2.1836       -2.1033       4.2869         1.5040       0.6797
  110       0.8440        1.2044      -0.3603         0.1447       0.6993
  111      25.9047        0.2855      25.6192         0.5347      25.3700
  112       1.7087        3.6265      -1.9178        -0.0600       1.7687
  114       0.1575       -0.6578       0.8152        -0.8557       1.0132
  121       0.0761       -1.3297       1.4058        -0.7862       0.8623
  126       0.0186       -1.0336       1.0523        -0.3211       0.3397
 Sum       29.8850        1.8356      28.0494        -2.7249      32.6099

 Contributions to Isotropic shielding for atom   99 (    32.5906 ppm):
                         Standard Origin              Atomic Origin
 NLMO      Total    Paramagnetic  Diamagnetic   Paramagnetic  Diamagnetic
   71      -0.3060        0.2150      -0.5210        -1.0549       0.7489
   83      -0.4219        1.3903      -1.8122        -0.8783       0.4564
   84      -0.2538        1.0558      -1.3096        -0.8097       0.5559
   85       1.2426       -0.5399       1.7825         0.5141       0.7286
   87      -0.2268       -0.2111      -0.0157        -1.0958       0.8690
   89      -0.2628        0.2531      -0.5159        -1.1672       0.9044
  104      -0.1211       -2.4210       2.2999        -0.3098       0.1887
  110       0.4082        3.1427      -2.7345        -0.4231       0.8312
  111       1.9049        2.9718      -1.0669        -0.0088       1.9137
  112      26.2067       -0.5667      26.7734         0.5690      25.6377
  116      -0.2052       -1.8594       1.6543        -0.7345       0.5294
  120       1.2904       -1.2008       2.4912         0.4686       0.8217
  121       0.1416       -3.8186       3.9602        -1.0995       1.2412
  126       0.0451       -1.0283       1.0734        -0.4967       0.5418
  191      -0.8728        1.7291      -2.6019         0.0976      -0.9704
 Sum       28.5691       -0.8882      29.4572        -6.4290      34.9981

 Contributions to Isotropic shielding for atom  100 (    31.1763 ppm):
                         Standard Origin              Atomic Origin
 NLMO      Total    Paramagnetic  Diamagnetic   Paramagnetic  Diamagnetic
   71      -0.3295        0.2041      -0.5336        -1.2117       0.8822
   84      -0.2181        0.4448      -0.6629        -1.0352       0.8170
   99      -0.5579        0.7242      -1.2821        -1.8362       1.2782
  100      -0.4611        2.2304      -2.6915        -1.1815       0.7204
  103       0.0655       -1.3862       1.4518        -0.8855       0.9510
  104       0.1867       -1.2431       1.4298        -0.7003       0.8870
  110       0.0589        1.4393      -1.3804        -0.8153       0.8742
  112       0.0300        0.5303      -0.5002        -1.0458       1.0759
  113      26.4565       -0.0945      26.5510         1.1824      25.2741
  114       1.8792        0.8285       1.0507         0.0036       1.8756
 Sum       27.1101        3.6776      23.4325        -7.5255      34.6356

 Contributions to Isotropic shielding for atom  101 (    30.3440 ppm):
                         Standard Origin              Atomic Origin
 NLMO      Total    Paramagnetic  Diamagnetic   Paramagnetic  Diamagnetic
   71      -0.7288        0.3633      -1.0921        -1.9570       1.2282
   72      -0.1735        1.1817      -1.3553        -0.8223       0.6487
   84      -0.2503        0.5077      -0.7581        -1.0783       0.8280
   89       0.8810       -0.3781       1.2591         0.2561       0.6250
   99      -0.5577        0.6929      -1.2506        -0.6447       0.0871
  100       2.3271       -1.6726       3.9997         1.3754       0.9517
  101      -0.0298       -0.5757       0.5459        -1.0026       0.9728
  103       0.0686       -0.9778       1.0464        -0.6395       0.7081
  110       1.2205       -2.1395       3.3600         0.3623       0.8583
  113       0.8015        1.7831      -0.9816        -1.0771       1.8786
  114      25.4585        0.9241      24.5344         0.6561      24.8023
 Sum       29.0172       -0.2908      29.3080        -4.5716      33.5888

 Contributions to Isotropic shielding for atom  102 (    31.5408 ppm):
                         Standard Origin              Atomic Origin
 NLMO      Total    Paramagnetic  Diamagnetic   Paramagnetic  Diamagnetic
   83      -0.3125        0.8416      -1.1541        -1.1273       0.8148
   87       0.3182       -0.7326       1.0508         0.0052       0.3130
   89      -0.5808        0.8568      -1.4376        -1.2085       0.6278
   97      -0.3186        1.6242      -1.9429        -0.9652       0.6466
   98       1.5264       -0.1492       1.6756         0.5697       0.9567
  104      -0.4634       -2.4909       2.0275        -0.5873       0.1239
  112      -0.2538       -1.4521       1.1983        -0.3080       0.0542
  115       0.6837        1.7076      -1.0239        -0.2090       0.8927
  116      26.4190       -0.3739      26.7929         0.7576      25.6613
  117       1.4008        4.6618      -3.2610        -0.5032       1.9040
  118      -0.6400        0.8863      -1.5262        -1.7045       1.0645
  120       0.3064       -1.4382       1.7446        -0.5705       0.8769
  121       0.5478       -1.9217       2.4695        -1.1633       1.7112
  191      -0.5774        0.7622      -1.3397         0.3111      -0.8886
 Sum       28.0558        2.7820      25.2738        -6.7033      34.7591

 Contributions to Isotropic shielding for atom  103 (    32.1115 ppm):
                         Standard Origin              Atomic Origin
 NLMO      Total    Paramagnetic  Diamagnetic   Paramagnetic  Diamagnetic
   87       0.4246       -0.7736       1.1982         0.2451       0.1795
   94      -0.1056        1.2753      -1.3809        -0.9475       0.8419
   97      -0.2976        1.7779      -2.0755        -1.0787       0.7811
   98       1.6870       -0.0224       1.7094         0.6677       1.0193
  109      -0.0446       -1.0037       0.9591        -0.8162       0.7716
  115       0.7530        1.8725      -1.1194        -0.3112       1.0642
  116       1.4200        4.3328      -2.9128        -0.4808       1.9008
  117      26.5450       -0.4337      26.9787         0.7335      25.8115
  118      -0.3015        1.3424      -1.6438        -0.6727       0.3712
  119      -0.2064        0.5029      -0.7093        -1.3484       1.1420
  121       0.1604       -0.5214       0.6818        -0.9079       1.0682
 Sum       30.0343        8.3489      21.6854        -4.9171      34.9514

 Contributions to Isotropic shielding for atom  104 (    31.2322 ppm):
                         Standard Origin              Atomic Origin
 NLMO      Total    Paramagnetic  Diamagnetic   Paramagnetic  Diamagnetic
   81      -0.3079        1.0527      -1.3607        -0.9491       0.6411
   82      -0.1592        0.4914      -0.6506        -1.0876       0.9284
   86      -0.5077        1.9015      -2.4091        -1.6500       1.1423
   87       2.5865       -2.0273       4.6138         1.6427       0.9438
   91      -0.1652        1.2875      -1.4528        -0.9399       0.7747
   92      -0.1200        1.1746      -1.2947        -0.9256       0.8055
   98       0.4090       -1.3104       1.7194         0.1475       0.2614
  115       1.0074        1.9266      -0.9192        -0.1716       1.1790
  117      -0.1563       -1.1512       0.9949        -1.3101       1.1538
  118       0.2056        4.2750      -4.0694        -0.7458       0.9515
  119      25.8739       -0.4547      26.3286         0.3496      25.5244
  122       0.9574       -2.3672       3.3246        -0.6925       1.6499
  127      -0.2205       -1.1801       0.9597        -0.6323       0.4119
  193      -0.7200        0.4378      -1.1579         0.2555      -0.9756
  194      -0.0621       -1.0310       0.9688        -0.6127       0.5506
 Sum       28.6208        3.0254      25.5955        -7.3219      35.9428

 Contributions to Isotropic shielding for atom  105 (    30.5490 ppm):
                         Standard Origin              Atomic Origin
 NLMO      Total    Paramagnetic  Diamagnetic   Paramagnetic  Diamagnetic
  120      -1.1341        0.6805      -1.8146        -2.0379       0.9038
  121      -0.4727        1.8314      -2.3041        -2.0168       1.5441
  122      -2.2802        1.7578      -4.0380        -3.0612       0.7809
  123       1.0277        1.1907      -0.1630        -0.4377       1.4653
  124      26.5942        0.5756      26.0185         1.3670      25.2272
  125       1.2412        4.3542      -3.1129        -0.8005       2.0417
  126       1.1794        2.1927      -1.0133        -0.6930       1.8725
  191       0.5327       -1.5052       2.0379         1.3118      -0.7791
  192       0.9060        0.8454       0.0606         1.1268      -0.2208
  193       1.6110       -1.7398       3.3508         1.6713      -0.0603
  194       0.4021        1.5033      -1.1012        -0.0701       0.4722
 Sum       29.6072       11.6866      17.9206        -3.6403      33.2475

 Contributions to Isotropic shielding for atom  106 (    30.4959 ppm):
                         Standard Origin              Atomic Origin
 NLMO      Total    Paramagnetic  Diamagnetic   Paramagnetic  Diamagnetic
  120      -0.5798        0.2158      -0.7956        -1.2076       0.6278
  121      -0.0711        0.8318      -0.9029        -1.0993       1.0282
  122      -0.6727        0.5261      -1.1988        -0.7072       0.0346
  123       1.6408       -1.5638       3.2046        -0.4350       2.0757
  124       0.4604        3.7063      -3.2460        -1.5252       1.9856
  125      25.9081        0.4444      25.4637         0.7285      25.1797
  126       1.3102        0.6090       0.7012        -0.6861       1.9963
  193       0.9349       -0.5117       1.4466         1.4051      -0.4702
 Sum       28.9307        4.2579      24.6728        -3.5268      32.4575

 Contributions to Isotropic shielding for atom  107 (    30.6061 ppm):
                         Standard Origin              Atomic Origin
 NLMO      Total    Paramagnetic  Diamagnetic   Paramagnetic  Diamagnetic
  120      -0.7540        0.3538      -1.1078        -1.6539       0.8999
  121      -0.2321        0.8434      -1.0755        -1.7659       1.5337
  122      -1.5025        1.6878      -3.1903        -2.3507       0.8481
  123       2.7126       -4.6084       7.3211         1.2981       1.4145
  124       0.8444        2.8565      -2.0121        -1.0308       1.8752
  125       1.6040        1.2572       0.3468        -0.4406       2.0446
  126      26.1969        0.9792      25.2176         1.0410      25.1559
  193       0.8393       -0.2841       1.1234         0.8867      -0.0474
 Sum       29.7085        3.0853      26.6232        -4.0161      33.7246

 Contributions to Isotropic shielding for atom  108 (    30.9207 ppm):
                         Standard Origin              Atomic Origin
 NLMO      Total    Paramagnetic  Diamagnetic   Paramagnetic  Diamagnetic
   76      -0.2676        0.0068      -0.2744        -1.1256       0.8580
   81      -0.4713        0.7735      -1.2448        -1.2280       0.7567
   82       0.7010        1.4152      -0.7142        -0.4783       1.1792
  119      -0.1740       -1.2435       1.0696        -0.7884       0.6144
  122       1.0754       -1.1307       2.2061         0.5221       0.5532
  125       0.0733       -1.4776       1.5508        -0.6590       0.7323
  126       0.1534       -0.8687       1.0221        -0.2699       0.4233
  127      26.0296        0.1701      25.8596         0.7010      25.3287
  128       1.5800        3.2377      -1.6577        -0.4020       1.9820
  129       1.9031        0.2953       1.6078         0.0663       1.8368
  193      -1.1047        0.8934      -1.9982         0.2281      -1.3328
 Sum       29.4981        2.0715      27.4266        -3.4337      32.9318

 Contributions to Isotropic shielding for atom  109 (    30.7016 ppm):
                         Standard Origin              Atomic Origin
 NLMO      Total    Paramagnetic  Diamagnetic   Paramagnetic  Diamagnetic
   75      -0.5026        0.3895      -0.8921        -1.2160       0.7134
   76      -0.5407        0.1798      -0.7205        -1.8987       1.3580
   82       1.1483        0.5047       0.6436        -0.1118       1.2602
  122       0.6832       -0.5493       1.2326         0.4164       0.2668
  125       0.0091       -1.4747       1.4838        -0.6179       0.6270
  127       1.4916        3.2949      -1.8033        -0.4781       1.9697
  128      26.0166        0.2541      25.7624         0.6737      25.3429
  129       2.0047       -0.2292       2.2339         0.2113       1.7934
  193      -0.5638        0.6849      -1.2488         0.3067      -0.8705
 Sum       29.7464        3.0548      26.6916        -2.7145      32.4610

 Contributions to Isotropic shielding for atom  110 (    31.9689 ppm):
                         Standard Origin              Atomic Origin
 NLMO      Total    Paramagnetic  Diamagnetic   Paramagnetic  Diamagnetic
   76      -0.3760       -0.1656      -0.2104        -1.5831       1.2071
   82       1.8914       -2.6700       4.5614         1.1245       0.7669
   86       0.0330       -0.1909       0.2239        -0.9915       1.0244
  122       0.5368       -0.6330       1.1697        -0.0171       0.5539
  127       1.7966        1.1081       0.6885        -0.1248       1.9214
  128       1.8983        0.5018       1.3965         0.0050       1.8933
  129      26.2586        0.8469      25.4117         0.5660      25.6926
 Sum       32.0386       -1.2025      33.2412        -1.0210      33.0596
 
 1\1\GINC-PCSN02\SP\RHF\STO-3G\C45H56N4O5\ABENIDD\30-May-2024\0\\# nmr=
 giao hf/sto-3g pop=nbo geom=connectivity\\pleiokomenine_C_1a\\0,1\C,0,
 0.,0.,0.\C,0,1.4009,0.,0.\C,0,2.0939,1.2291,0.\C,0,1.4096,2.4512,-0.00
 04\C,0,0.026,2.4443,-0.02\C,0,-0.6633,1.2187,-0.0034\N,0,-0.8556,3.558
 ,-0.0735\C,0,-2.1439,1.4974,0.0707\C,0,-2.1139,2.9424,-0.5658\C,0,-3.1
 415,0.6252,-0.7058\C,0,-2.0415,2.8048,-2.1496\C,0,-3.2782,2.0865,-2.70
 35\C,0,-4.1113,1.5427,-1.5267\N,0,-3.7696,-0.2203,0.3122\C,0,-4.9899,-
 0.8932,-0.1077\C,0,-5.9851,-0.0182,-0.869\C,0,-5.3086,0.72,-2.024\C,0,
 -2.545,1.3197,1.5552\C,0,-3.8547,0.5422,1.5483\C,0,-4.5991,2.8085,-0.7
 426\C,0,-3.4174,3.7203,-0.3128\C,0,-3.6144,4.301,1.0765\O,0,-4.4179,3.
 8885,1.904\O,0,-2.8299,5.4005,1.2551\C,0,-2.9253,5.9833,2.5544\C,0,-0.
 3287,4.7788,-0.664\C,0,2.1627,-1.3052,-0.0185\C,0,2.3585,-1.8605,-1.41
 13\C,0,3.4073,-1.3914,-2.2134\C,0,1.476,-2.8333,-1.9235\C,0,1.618,-3.3
 29,-3.2253\C,0,2.6411,-2.842,-4.0207\C,0,3.5467,-1.9037,-3.4951\N,0,2.
 9128,-3.1507,-5.3822\C,0,4.6039,-1.6263,-4.5338\C,0,3.7582,-2.0103,-5.
 8098\C,0,5.152,-0.211,-4.7003\C,0,2.838,-0.7727,-6.195\C,0,3.6901,0.45
 06,-6.5712\C,0,5.1684,0.1723,-6.2084\N,0,6.4997,-0.1394,-3.9703\C,0,7.
 6573,0.1192,-4.9033\C,0,7.436,1.3082,-5.8276\C,0,6.0263,1.4232,-6.4093
 \C,0,5.8473,-2.447,-4.1676\C,0,6.6555,-1.492,-3.3082\C,0,5.602,-1.0023
 ,-7.1551\C,0,4.6355,-2.2211,-7.0576\C,0,5.3556,-3.5559,-7.181\O,0,6.56
 8,-3.7074,-7.0945\O,0,4.4821,-4.5523,-7.4923\C,0,5.0788,-5.8444,-7.605
 3\C,0,1.7742,-3.5828,-6.1823\O,0,6.4717,0.8428,-3.0122\H,0,-0.5613,-0.
 9295,0.0203\H,0,3.1827,1.2397,-0.0037\H,0,1.9722,3.3775,0.0037\H,0,-2.
 6163,-0.0436,-1.4013\H,0,-1.9664,3.7939,-2.6196\H,0,-1.1429,2.2632,-2.
 4703\H,0,-3.8725,2.7794,-3.3125\H,0,-2.9642,1.2786,-3.3762\H,0,-4.6996
 ,-1.7253,-0.7622\H,0,-5.4862,-1.3595,0.7521\H,0,-6.7891,-0.6486,-1.266
 9\H,0,-6.4607,0.6929,-0.1849\H,0,-4.9726,-0.0167,-2.7654\H,0,-6.0389,1
 .3622,-2.5305\H,0,-2.6045,2.2486,2.1212\H,0,-1.8086,0.7056,2.0939\H,0,
 -3.9179,-0.1186,2.4196\H,0,-4.7171,1.2097,1.5839\H,0,-5.2592,3.3992,-1
 .3941\H,0,-5.2326,2.5327,0.1006\H,0,-3.4477,4.5988,-0.9758\H,0,-3.9327
 ,6.3762,2.7229\H,0,-2.6586,5.2532,3.3252\H,0,-2.2161,6.8139,2.6058\H,0
 ,0.1316,4.5984,-1.642\H,0,0.4179,5.2318,-0.0029\H,0,-1.1238,5.5182,-0.
 8005\H,0,3.1415,-1.1747,0.4623\H,0,1.6416,-2.0408,0.6087\H,0,4.0942,-0
 .637,-1.8367\H,0,0.6589,-3.2024,-1.307\H,0,0.9188,-4.0709,-3.5932\H,0,
 4.5231,0.5096,-4.1574\H,0,2.1825,-1.0217,-7.0392\H,0,2.1636,-0.4988,-5
 .3741\H,0,3.3088,1.3359,-6.0471\H,0,3.5894,0.6618,-7.6434\H,0,8.5311,0
 .2925,-4.2627\H,0,7.8461,-0.8015,-5.4584\H,0,7.6644,2.2355,-5.2872\H,0
 ,8.1659,1.2545,-6.6444\H,0,5.5333,2.2762,-5.9229\H,0,6.0867,1.6877,-7.
 4723\H,0,5.6371,-3.3839,-3.6408\H,0,6.4606,-2.6896,-5.0299\H,0,7.7191,
 -1.7425,-3.2516\H,0,6.2567,-1.4054,-2.2928\H,0,6.6348,-1.2998,-6.9769\
 H,0,5.5935,-0.6465,-8.1951\H,0,4.0003,-2.1833,-7.9562\H,0,5.7824,-5.86
 73,-8.4432\H,0,4.2832,-6.5687,-7.8004\H,0,5.5773,-6.1217,-6.6711\H,0,2
 .0386,-3.6274,-7.2432\H,0,1.4614,-4.5904,-5.8881\H,0,0.9188,-2.905,-6.
 0813\\Version=ES64L-G16RevB.01\State=1-A\HF=-2300.2212241\RMSD=9.833e-
 09\Dipole=-0.6884043,-0.4122605,-2.076357\Quadrupole=-9.6704521,6.2082
 89,3.4621631,-9.393723,-5.101692,4.8676145\PG=C01 [X(C45H56N4O5)]\\@


 What some people mistake for the high cost
 of living is really the cost of living high.
                              -- Doug Larson
 Job cpu time:       0 days  0 hours 10 minutes 30.5 seconds.
 Elapsed time:       0 days  0 hours  1 minutes 49.0 seconds.
 File lengths (MBytes):  RWF=     67 Int=      0 D2E=      0 Chk=     10 Scr=      1
 Normal termination of Gaussian 16 at Thu May 30 09:10:37 2024.
