 Entering Gaussian System, Link 0=g16
 Input=1_pleiokomenine_1a_c_19.gjf
 Output=1_pleiokomenine_1a_c_19.log
 Initial command:
 /opt/gaussian/g16/l1.exe "/data/abenidd/Elvis/pleiokomenine_C/NMR_HF/1a/1_pleiokomenine_1a_c_19/Gau-24999.inp" -scrdir="/data/abenidd/Elvis/pleiokomenine_C/NMR_HF/1a/1_pleiokomenine_1a_c_19/"
 Entering Link 1 = /opt/gaussian/g16/l1.exe PID=     25001.
  
 Copyright (c) 1988-2017, Gaussian, Inc.  All Rights Reserved.
  
 This is part of the Gaussian(R) 16 program.  It is based on
 the Gaussian(R) 09 system (copyright 2009, Gaussian, Inc.),
 the Gaussian(R) 03 system (copyright 2003, Gaussian, Inc.),
 the Gaussian(R) 98 system (copyright 1998, Gaussian, Inc.),
 the Gaussian(R) 94 system (copyright 1995, Gaussian, Inc.),
 the Gaussian 92(TM) system (copyright 1992, Gaussian, Inc.),
 the Gaussian 90(TM) system (copyright 1990, Gaussian, Inc.),
 the Gaussian 88(TM) system (copyright 1988, Gaussian, Inc.),
 the Gaussian 86(TM) system (copyright 1986, Carnegie Mellon
 University), and the Gaussian 82(TM) system (copyright 1983,
 Carnegie Mellon University). Gaussian is a federally registered
 trademark of Gaussian, Inc.
  
 This software contains proprietary and confidential information,
 including trade secrets, belonging to Gaussian, Inc.
  
 This software is provided under written license and may be
 used, copied, transmitted, or stored only in accord with that
 written license.
  
 The following legend is applicable only to US Government
 contracts under FAR:
  
                    RESTRICTED RIGHTS LEGEND
  
 Use, reproduction and disclosure by the US Government is
 subject to restrictions as set forth in subparagraphs (a)
 and (c) of the Commercial Computer Software - Restricted
 Rights clause in FAR 52.227-19.
  
 Gaussian, Inc.
 340 Quinnipiac St., Bldg. 40, Wallingford CT 06492
  
  
 ---------------------------------------------------------------
 Warning -- This program may not be used in any manner that
 competes with the business of Gaussian, Inc. or will provide
 assistance to any competitor of Gaussian, Inc.  The licensee
 of this program is prohibited from giving any competitor of
 Gaussian, Inc. access to this program.  By using this program,
 the user acknowledges that Gaussian, Inc. is engaged in the
 business of creating and licensing software in the field of
 computational chemistry and represents and warrants to the
 licensee that it is not a competitor of Gaussian, Inc. and that
 it will not use this program in any manner prohibited above.
 ---------------------------------------------------------------
  

 Cite this work as:
 Gaussian 16, Revision B.01,
 M. J. Frisch, G. W. Trucks, H. B. Schlegel, G. E. Scuseria, 
 M. A. Robb, J. R. Cheeseman, G. Scalmani, V. Barone, 
 G. A. Petersson, H. Nakatsuji, X. Li, M. Caricato, A. V. Marenich, 
 J. Bloino, B. G. Janesko, R. Gomperts, B. Mennucci, H. P. Hratchian, 
 J. V. Ortiz, A. F. Izmaylov, J. L. Sonnenberg, D. Williams-Young, 
 F. Ding, F. Lipparini, F. Egidi, J. Goings, B. Peng, A. Petrone, 
 T. Henderson, D. Ranasinghe, V. G. Zakrzewski, J. Gao, N. Rega, 
 G. Zheng, W. Liang, M. Hada, M. Ehara, K. Toyota, R. Fukuda, 
 J. Hasegawa, M. Ishida, T. Nakajima, Y. Honda, O. Kitao, H. Nakai, 
 T. Vreven, K. Throssell, J. A. Montgomery, Jr., J. E. Peralta, 
 F. Ogliaro, M. J. Bearpark, J. J. Heyd, E. N. Brothers, K. N. Kudin, 
 V. N. Staroverov, T. A. Keith, R. Kobayashi, J. Normand, 
 K. Raghavachari, A. P. Rendell, J. C. Burant, S. S. Iyengar, 
 J. Tomasi, M. Cossi, J. M. Millam, M. Klene, C. Adamo, R. Cammi, 
 J. W. Ochterski, R. L. Martin, K. Morokuma, O. Farkas, 
 J. B. Foresman, and D. J. Fox, Gaussian, Inc., Wallingford CT, 2016.
 
 ******************************************
 Gaussian 16:  ES64L-G16RevB.01 20-Dec-2017
                30-May-2024 
 ******************************************
 %nprocshared=8
 Will use up to    8 processors via shared memory.
 ----------------------------------------------
 # nmr=giao hf/sto-3g pop=nbo geom=connectivity
 ----------------------------------------------
 1/38=1,57=2,172=1/1;
 2/12=2,17=6,18=5,40=1/2;
 3/6=3,11=9,25=1,30=1/1,2,3,8;
 4//1;
 5/5=2,38=5/2;
 8/6=1,10=90,11=11/1;
 10/13=100,45=16/2;
 6/7=2,8=2,9=2,10=2,28=1,40=1,64=1/1,7;
 99/9=1/99;
 ------------------
 pleiokomenine_C_1a
 ------------------
 Symbolic Z-matrix:
 Charge =  0 Multiplicity = 1
 C                     0.        0.        0. 
 C                     1.4024    0.        0. 
 C                     2.0942    1.23      0. 
 C                     1.4083    2.4531   -0.0102 
 C                     0.0248    2.4443   -0.01 
 C                    -0.663     1.2157    0.0203 
 N                    -0.8653    3.5559   -0.0353 
 C                    -2.1329    1.5057    0.193 
 C                    -2.1363    2.9236   -0.482 
 C                    -3.2092    0.6403   -0.461 
 C                    -2.078     2.746    -2.0678 
 C                    -3.2511    1.9141   -2.5903 
 C                    -4.1163    1.4536   -1.4113 
 N                    -4.0603    0.2259    0.656 
 C                    -4.9766   -0.8287    0.2801 
 C                    -5.9615   -0.2193   -0.7333 
 C                    -5.2677    0.5339   -1.8853 
 C                    -2.3971    1.3279    1.7137 
 C                    -3.1909    0.0211    1.7906 
 C                    -4.6361    2.7504   -0.6952 
 C                    -3.4604    3.6832   -0.2513 
 C                    -3.6837    4.2846    1.1269 
 O                    -4.5997    3.9966    1.8871 
 O                    -2.7812    5.276     1.3736 
 C                    -2.9093    5.8787    2.6604 
 C                    -0.3719    4.7747   -0.6557 
 C                     2.1592   -1.3094    0.0829 
 C                     2.1907   -1.8759    1.4867 
 C                     1.0804   -2.5724    1.9815 
 C                     3.299    -1.6586    2.3292 
 C                     3.2968   -2.0986    3.6604 
 C                     2.1709   -2.7346    4.1565 
 C                     1.0865   -2.9917    3.3021 
 N                     1.9135   -3.1537    5.4921 
 C                     0.0259   -3.7309    4.0754 
 C                     0.4319   -3.2398    5.5186 
 C                    -1.4446   -3.403     3.8281 
 C                    -0.1842   -1.7922    5.7533 
 C                    -1.7198   -1.8319    5.7064 
 C                    -2.1781   -3.2155    5.1867 
 N                    -2.0124   -4.4756    2.8906 
 C                    -3.1022   -5.2952    3.5369 
 C                    -4.192    -4.4496    4.1786 
 C                    -3.6921   -3.2357    4.9628 
 C                     0.125    -5.2177    3.7153 
 C                    -0.8312   -5.3583    2.545 
 C                    -1.7232   -4.2331    6.2925 
 C                    -0.2057   -4.0954    6.6286 
 C                     0.4536   -5.4314    6.9374 
 O                    -0.0405   -6.5268    6.7004 
 O                     1.6307   -5.2514    7.5965 
 C                     2.3228   -6.4609    7.9071 
 C                     2.6406   -2.4453    6.5377 
 O                    -2.5044   -3.8957    1.7466 
 H                    -0.561    -0.9291    0.0353 
 H                     3.1817    1.2405    0.0223 
 H                     1.9658    3.3822   -0.0036 
 H                    -2.7627   -0.2244   -0.9711 
 H                    -2.0925    3.729    -2.5573 
 H                    -1.1421    2.2802   -2.4007 
 H                    -3.8436    2.5069   -3.2983 
 H                    -2.8667    1.0541   -3.1529 
 H                    -4.4549   -1.6913   -0.1512 
 H                    -5.5416   -1.1827    1.1498 
 H                    -6.6007   -1.0088   -1.1449 
 H                    -6.6278    0.4782   -0.209 
 H                    -4.864    -0.217    -2.5776 
 H                    -6.0115    1.1085   -2.45 
 H                    -1.4954    1.2628    2.3344 
 H                    -3.0016    2.1335    2.128 
 H                    -2.5446   -0.855     1.6716 
 H                    -3.7377   -0.0569    2.7348 
 H                    -5.28      3.3104   -1.3871 
 H                    -5.2815    2.4875    0.1493 
 H                    -3.4933    4.5565   -0.9208 
 H                    -3.8671    6.4016    2.7433 
 H                    -2.8061    5.1281    3.4505 
 H                    -2.1045    6.6104    2.7731 
 H                     0.0494    4.59     -1.6503 
 H                     0.3987    5.2372   -0.0298 
 H                    -1.1772    5.5077   -0.7644 
 H                     1.7023   -2.0394   -0.5986 
 H                     3.1831   -1.1759   -0.2894 
 H                     0.2144   -2.753     1.3497 
 H                     4.1669   -1.1194    1.9559 
 H                     4.1587   -1.9035    4.2881 
 H                    -1.5371   -2.4746    3.2471 
 H                     0.1307   -1.3874    6.7236 
 H                     0.176    -1.0725    5.0075 
 H                    -2.0855   -1.0211    5.0637 
 H                    -2.1305   -1.6401    6.7058 
 H                    -3.5244   -5.9207    2.7405 
 H                    -2.6286   -5.9667    4.2554 
 H                    -4.883    -4.0988    3.4015 
 H                    -4.789    -5.091     4.838 
 H                    -3.9825   -2.3365    4.4021 
 H                    -4.2268   -3.1686    5.9184 
 H                     1.1333   -5.5576    3.4557 
 H                    -0.2451   -5.8676    4.5021 
 H                    -1.1837   -6.3817    2.385 
 H                    -0.4044   -4.9808    1.6107 
 H                    -1.9784   -5.2571    6.0213 
 H                    -2.2921   -4.0411    7.2133 
 H                    -0.1497   -3.5494    7.5832 
 H                     3.2711   -6.1956    8.3825 
 H                     2.5394   -7.0258    6.9949 
 H                     1.7393   -7.0644    8.6091 
 H                     2.2542   -2.7087    7.5269 
 H                     3.6993   -2.7257    6.5225 
 H                     2.5633   -1.3574    6.4298 
 
 Stoichiometry    C45H56N4O5
 Framework group  C1[X(C45H56N4O5)]
 Deg. of freedom   324
 Full point group                 C1      NOp   1
 Largest Abelian subgroup         C1      NOp   1
 Largest concise Abelian subgroup C1      NOp   1
                         Standard orientation:                         
 ---------------------------------------------------------------------
 Center     Atomic      Atomic             Coordinates (Angstroms)
 Number     Number       Type             X           Y           Z
 ---------------------------------------------------------------------
      1          6           0       -1.681095    1.545622   -1.607215
      2          6           0       -1.230311    2.848858   -1.862355
      3          6           0       -1.917179    3.942325   -1.293119
      4          6           0       -3.047828    3.753462   -0.485344
      5          6           0       -3.485913    2.464557   -0.238454
      6          6           0       -2.780862    1.373892   -0.783245
      7          7           0       -4.608713    2.045801    0.531309
      8          6           0       -3.365512    0.106019   -0.212968
      9          6           0       -4.814212    0.654112    0.045760
     10          6           0       -3.458796   -1.180351   -1.032483
     11          6           0       -5.602672    0.718022   -1.341305
     12          6           0       -5.674012   -0.652234   -2.018460
     13          6           0       -4.913971   -1.680555   -1.172549
     14          7           0       -2.764993   -2.175758   -0.212977
     15          6           0       -2.502406   -3.395867   -0.944735
     16          6           0       -3.869205   -4.040088   -1.236650
     17          6           0       -4.884731   -3.065096   -1.864241
     18          6           0       -2.419044   -0.276354    0.958327
     19          6           0       -1.662680   -1.496369    0.426128
     20          6           0       -5.615881   -1.722319    0.231110
     21          6           0       -5.664808   -0.308978    0.901563
     22          6           0       -5.365525   -0.361179    2.391088
     23          8           0       -4.997176   -1.353764    3.006716
     24          8           0       -5.662291    0.829048    2.985673
     25          6           0       -5.387459    0.870102    4.385064
     26          6           0       -5.718231    2.980054    0.631076
     27          6           0        0.029947    3.068564   -2.673297
     28          6           0        1.289616    2.824103   -1.869530
     29          6           0        1.740415    1.513829   -1.662972
     30          6           0        1.983829    3.893903   -1.270404
     31          6           0        3.096190    3.667889   -0.447440
     32          6           0        3.498021    2.365220   -0.202808
     33          6           0        2.833868    1.303611   -0.838349
     34          7           0        4.515505    1.909500    0.681937
     35          6           0        3.497025    0.010745   -0.440854
     36          6           0        4.118592    0.499874    0.924154
     37          6           0        2.635608   -1.223992   -0.187025
     38          6           0        2.989358    0.446567    2.043171
     39          6           0        2.497350   -0.992781    2.262369
     40          6           0        3.065257   -1.901016    1.145647
     41          7           0        2.691164   -2.100351   -1.444277
     42          6           0        3.329209   -3.443815   -1.189102
     43          6           0        2.733585   -4.177052    0.003407
     44          6           0        2.461028   -3.304800    1.229503
     45          6           0        4.414841   -0.424836   -1.588875
     46          6           0        3.518827   -1.309733   -2.436108
     47          6           0        4.618126   -1.903211    1.377659
     48          6           0        5.203023   -0.458423    1.449855
     49          6           0        6.585293   -0.349721    0.823401
     50          8           0        7.095953   -1.198982    0.103548
     51          8           0        7.220656    0.778999    1.241349
     52          6           0        8.521023    0.964437    0.681863
     53          6           0        4.844351    2.795380    1.791380
     54          8           0        1.427319   -2.291172   -1.947631
     55          1           0       -1.153722    0.682270   -2.001798
     56          1           0       -1.562180    4.955722   -1.467090
     57          1           0       -3.551529    4.611586   -0.056408
     58          1           0       -2.977952   -1.058129   -2.012851
     59          1           0       -6.623673    1.087735   -1.177056
     60          1           0       -5.154522    1.432809   -2.042691
     61          1           0       -6.721671   -0.952286   -2.145391
     62          1           0       -5.247673   -0.583523   -3.027120
     63          1           0       -1.952307   -3.206710   -1.874187
     64          1           0       -1.907641   -4.091614   -0.342148
     65          1           0       -3.734642   -4.903894   -1.897736
     66          1           0       -4.288700   -4.428487   -0.299355
     67          1           0       -4.609594   -2.932366   -2.919128
     68          1           0       -5.882764   -3.519176   -1.858618
     69          1           0       -1.713747    0.508464    1.256968
     70          1           0       -2.963683   -0.562535    1.856951
     71          1           0       -0.877731   -1.211097   -0.282314
     72          1           0       -1.222001   -2.077610    1.241327
     73          1           0       -6.646288   -2.082912    0.107950
     74          1           0       -5.129217   -2.458219    0.879528
     75          1           0       -6.717157    0.011940    0.862320
     76          1           0       -6.032808    0.167672    4.921527
     77          1           0       -4.331843    0.653775    4.577904
     78          1           0       -5.602956    1.880721    4.742833
     79          1           0       -6.034886    3.350811   -0.350304
     80          1           0       -5.442009    3.836071    1.255909
     81          1           0       -6.583262    2.505342    1.104346
     82          1           0        0.019396    2.408694   -3.551113
     83          1           0        0.040052    4.086527   -3.083723
     84          1           0        1.221650    0.672703   -2.115889
     85          1           0        1.643297    4.915563   -1.423985
     86          1           0        3.600491    4.510710    0.011119
     87          1           0        1.575746   -0.942450   -0.113071
     88          1           0        3.365572    0.841727    2.995441
     89          1           0        2.131756    1.080118    1.784210
     90          1           0        1.400089   -1.005291    2.269918
     91          1           0        2.815004   -1.351314    3.249694
     92          1           0        3.184566   -4.027739   -2.106636
     93          1           0        4.403039   -3.283580   -1.076565
     94          1           0        1.792261   -4.654033   -0.297968
     95          1           0        3.406058   -4.997901    0.280171
     96          1           0        1.371151   -3.218819    1.339295
     97          1           0        2.805083   -3.822180    2.133672
     98          1           0        4.836574    0.399896   -2.173300
     99          1           0        5.241928   -1.043951   -1.255675
    100          1           0        4.067348   -2.004662   -3.079072
    101          1           0        2.824037   -0.730758   -3.052255
    102          1           0        5.132558   -2.502696    0.627171
    103          1           0        4.838265   -2.404977    2.330630
    104          1           0        5.382348   -0.251390    2.516388
    105          1           0        8.911072    1.920448    1.041818
    106          1           0        8.468386    1.001805   -0.410826
    107          1           0        9.195030    0.168008    1.011870
    108          1           0        5.500272    2.293157    2.508835
    109          1           0        5.382939    3.677217    1.428079
    110          1           0        3.951452    3.127163    2.333409
 ---------------------------------------------------------------------
 Rotational constants (GHZ):           0.0948332           0.0335883           0.0302519
 Standard basis: STO-3G (5D, 7F)
 There are   326 symmetry adapted cartesian basis functions of A   symmetry.
 There are   326 symmetry adapted basis functions of A   symmetry.
   326 basis functions,   978 primitive gaussians,   326 cartesian basis functions
   197 alpha electrons      197 beta electrons
       nuclear repulsion energy      8159.6472350153 Hartrees.
 NAtoms=  110 NActive=  110 NUniq=  110 SFac= 1.00D+00 NAtFMM=   60 NAOKFM=T Big=T
 Integral buffers will be    131072 words long.
 Raffenetti 1 integral format.
 Two-electron integral symmetry is turned on.
 One-electron integrals computed using PRISM.
 NBasis=   326 RedAO= T EigKep=  1.72D-01  NBF=   326
 NBsUse=   326 1.00D-06 EigRej= -1.00D+00 NBFU=   326
 ExpMin= 1.69D-01 ExpMax= 1.31D+02 ExpMxC= 1.31D+02 IAcc=3 IRadAn=         5 AccDes= 0.00D+00
 Harris functional with IExCor=  205 and IRadAn=       5 diagonalized for initial guess.
 HarFok:  IExCor=  205 AccDes= 0.00D+00 IRadAn=         5 IDoV= 1 UseB2=F ITyADJ=14
 ICtDFT=  3500011 ScaDFX=  1.000000  1.000000  1.000000  1.000000
 FoFCou: FMM=F IPFlag=           0 FMFlag=      100000 FMFlg1=        2001
         NFxFlg=           0 DoJE=T BraDBF=F KetDBF=T FulRan=T
         wScrn=  0.000000 ICntrl=       500 IOpCl=  0 I1Cent=   200000004 NGrid=           0
         NMat0=    1 NMatS0=      1 NMatT0=    0 NMatD0=    1 NMtDS0=    0 NMtDT0=    0
 Petite list used in FoFCou.
 Requested convergence on RMS density matrix=1.00D-08 within 128 cycles.
 Requested convergence on MAX density matrix=1.00D-06.
 Requested convergence on             energy=1.00D-06.
 No special actions if energy rises.
 Integral accuracy reduced to 1.0D-05 until final iterations.
 Initial convergence to 1.0D-05 achieved.  Increase integral accuracy.
 SCF Done:  E(RHF) =  -2300.21584614     A.U. after   16 cycles
            NFock= 16  Conv=0.36D-08     -V/T= 2.0092
 Range of M.O.s used for correlation:     1   326
 NBasis=   326 NAE=   197 NBE=   197 NFC=     0 NFV=     0
 NROrb=    326 NOA=   197 NOB=   197 NVA=   129 NVB=   129
          Differentiating once with respect to magnetic field using GIAOs.
          Electric field/nuclear overlap derivatives assumed to be zero.
 FoFCou: FMM=F IPFlag=           0 FMFlag=      100000 FMFlg1=        2001
         NFxFlg=           0 DoJE=F BraDBF=F KetDBF=T FulRan=T
         wScrn=  0.000000 ICntrl=      6100 IOpCl=  0 I1Cent=           7 NGrid=         110
         NMat0=    1 NMatS0=      1 NMatT0=    0 NMatD0=    1 NMtDS0=    0 NMtDT0=    0
 Symmetry not used in FoFCou.
 FoFJK:  IHMeth= 1 ICntrl=    6127 DoSepK=F KAlg= 0 I1Cent=           0 FoldK=F
 IRaf=         1 NMat=       1 IRICut=       1 DoRegI=T DoRafI=F ISym2E= 0 IDoP0=0 IntGTp=1.
          There are     3 degrees of freedom in the 1st order CPHF.  IDoFFX=0 NUNeed=     3.
      3 vectors produced by pass  0 Test12= 8.47D-13 3.33D-08 XBig12= 1.82D+02 2.34D+00.
 AX will form     3 AO Fock derivatives at one time.
      3 vectors produced by pass  1 Test12= 8.47D-13 3.33D-08 XBig12= 7.89D-01 3.35D-01.
      3 vectors produced by pass  2 Test12= 8.47D-13 3.33D-08 XBig12= 1.88D-02 3.05D-02.
      3 vectors produced by pass  3 Test12= 8.47D-13 3.33D-08 XBig12= 4.92D-04 7.27D-03.
      3 vectors produced by pass  4 Test12= 8.47D-13 3.33D-08 XBig12= 2.03D-05 9.69D-04.
      3 vectors produced by pass  5 Test12= 8.47D-13 3.33D-08 XBig12= 3.87D-07 8.39D-05.
      3 vectors produced by pass  6 Test12= 8.47D-13 3.33D-08 XBig12= 1.34D-08 1.84D-05.
      3 vectors produced by pass  7 Test12= 8.47D-13 3.33D-08 XBig12= 2.96D-10 1.69D-06.
      3 vectors produced by pass  8 Test12= 8.47D-13 3.33D-08 XBig12= 4.67D-12 3.00D-07.
      2 vectors produced by pass  9 Test12= 8.47D-13 3.33D-08 XBig12= 1.14D-13 7.37D-08.
 InvSVY:  IOpt=1 It=  1 EMax= 5.33D-15
 Solved reduced A of dimension    29 with     3 vectors.
 Calculating GIAO nuclear magnetic shielding tensors.
 SCF GIAO Magnetic shielding tensor (ppm):
      1  C    Isotropic =   126.2870   Anisotropy =   149.4506
   XX=   137.0673   YX=    32.5823   ZX=    71.2292
   XY=    30.5892   YY=    62.4818   ZY=   -29.6818
   XZ=    57.4491   YZ=   -19.6017   ZZ=   179.3119
   Eigenvalues:    34.0588   118.8814   225.9207
      2  C    Isotropic =   120.4675   Anisotropy =   156.3319
   XX=    99.5312   YX=   -13.9646   ZX=    90.2536
   XY=   -10.9768   YY=    94.6819   ZY=    -2.5418
   XZ=    78.2858   YZ=    -0.4476   ZZ=   167.1895
   Eigenvalues:    40.8676    95.8462   224.6888
      3  C    Isotropic =   119.8931   Anisotropy =   150.5958
   XX=   135.3397   YX=   -33.8173   ZX=    61.0802
   XY=   -31.0230   YY=    41.9635   ZY=     8.6839
   XZ=    50.0295   YZ=     1.3012   ZZ=   182.3761
   Eigenvalues:    28.3363   111.0528   220.2903
      4  C    Isotropic =   133.5716   Anisotropy =   142.9425
   XX=   146.0870   YX=    25.9824   ZX=    64.0616
   XY=    18.5066   YY=    76.9169   ZY=   -23.1798
   XZ=    65.6025   YZ=   -26.5573   ZZ=   177.7111
   Eigenvalues:    51.8222   120.0261   228.8666
      5  C    Isotropic =   108.3326   Anisotropy =   128.8270
   XX=    97.1269   YX=    -0.7524   ZX=    69.4619
   XY=     0.1495   YY=    90.0353   ZY=    -4.5080
   XZ=    78.2618   YZ=    13.8875   ZZ=   137.8355
   Eigenvalues:    40.6735    90.1071   194.2172
      6  C    Isotropic =   117.2016   Anisotropy =   143.1365
   XX=   138.6620   YX=    -9.3673   ZX=    61.4330
   XY=   -13.8336   YY=    52.1458   ZY=     9.9255
   XZ=    62.1540   YZ=    -1.9001   ZZ=   160.7969
   Eigenvalues:    48.5983    90.3805   212.6259
      7  N    Isotropic =   272.4580   Anisotropy =    82.8983
   XX=   301.3396   YX=    26.0573   ZX=   -14.0708
   XY=    45.7620   YY=   261.7277   ZY=   -10.0819
   XZ=   -21.5448   YZ=    -6.2883   ZZ=   254.3067
   Eigenvalues:   240.1045   249.5459   327.7235
      8  C    Isotropic =   198.3248   Anisotropy =    12.7986
   XX=   197.6233   YX=    -8.0944   ZX=    -2.9632
   XY=    -6.3387   YY=   199.1543   ZY=     7.8731
   XZ=     1.3495   YZ=    -0.7149   ZZ=   198.1969
   Eigenvalues:   190.6621   197.4551   206.8572
      9  C    Isotropic =   180.0553   Anisotropy =    43.5914
   XX=   174.2455   YX=     2.8093   ZX=   -20.0817
   XY=    -1.5996   YY=   202.9437   ZY=    10.4505
   XZ=    -5.3278   YZ=    21.9773   ZZ=   162.9768
   Eigenvalues:   150.8307   180.2190   209.1163
     10  C    Isotropic =   189.3852   Anisotropy =    34.1143
   XX=   190.9459   YX=   -16.5055   ZX=     7.4921
   XY=   -16.2042   YY=   194.3009   ZY=    -4.7985
   XZ=    13.3656   YZ=    -1.4782   ZZ=   182.9087
   Eigenvalues:   172.3186   183.7089   212.1281
     11  C    Isotropic =   212.7338   Anisotropy =    20.8262
   XX=   210.0734   YX=     1.2877   ZX=     9.1185
   XY=    -1.4561   YY=   208.6156   ZY=     4.7289
   XZ=    12.5070   YZ=    -2.9465   ZZ=   219.5123
   Eigenvalues:   202.9398   208.6436   226.6179
     12  C    Isotropic =   214.4107   Anisotropy =    19.4427
   XX=   208.7010   YX=    -8.3511   ZX=     5.2354
   XY=    -7.3890   YY=   221.4404   ZY=    -4.5596
   XZ=     5.8698   YZ=    -2.2535   ZZ=   213.0908
   Eigenvalues:   203.4301   212.4295   227.3726
     13  C    Isotropic =   210.8431   Anisotropy =     7.6243
   XX=   209.2682   YX=     2.6386   ZX=    -0.8347
   XY=     1.5541   YY=   212.0892   ZY=     4.4838
   XZ=     2.2934   YZ=     2.7637   ZZ=   211.1718
   Eigenvalues:   207.4346   209.1687   215.9260
     14  N    Isotropic =   298.9990   Anisotropy =    58.1694
   XX=   300.0017   YX=   -17.2823   ZX=    39.2391
   XY=   -20.7930   YY=   321.1787   ZY=    13.6478
   XZ=    40.6538   YZ=     3.1052   ZZ=   275.8165
   Eigenvalues:   241.9846   317.2337   337.7786
     15  C    Isotropic =   201.9502   Anisotropy =    38.6666
   XX=   193.0670   YX=     0.0407   ZX=    -2.2782
   XY=    -1.4699   YY=   220.3040   ZY=    16.3365
   XZ=    -1.6030   YZ=    15.8546   ZZ=   192.4795
   Eigenvalues:   184.8532   193.2694   227.7279
     16  C    Isotropic =   219.2610   Anisotropy =    11.3187
   XX=   223.6846   YX=     1.9738   ZX=     5.6048
   XY=     1.3869   YY=   222.5782   ZY=    -1.8008
   XZ=     6.2867   YZ=     2.6611   ZZ=   211.5201
   Eigenvalues:   209.0926   221.8836   226.8068
     17  C    Isotropic =   213.9012   Anisotropy =    22.6272
   XX=   206.9039   YX=    -1.7699   ZX=     3.6551
   XY=    -4.9696   YY=   225.9494   ZY=     8.3415
   XZ=     2.0235   YZ=     6.6487   ZZ=   208.8504
   Eigenvalues:   202.5188   210.1988   228.9860
     18  C    Isotropic =   209.2103   Anisotropy =    32.0559
   XX=   207.4660   YX=   -15.1084   ZX=    17.4163
   XY=    -8.6678   YY=   214.9160   ZY=    -0.9406
   XZ=    20.5409   YZ=     1.1630   ZZ=   205.2487
   Eigenvalues:   184.9365   212.1134   230.5808
     19  C    Isotropic =   200.0518   Anisotropy =    40.9442
   XX=   207.3494   YX=     3.3065   ZX=    21.5170
   XY=    11.2837   YY=   201.2986   ZY=    15.3967
   XZ=    15.5721   YZ=    12.8378   ZZ=   191.5074
   Eigenvalues:   176.3283   196.4791   227.3480
     20  C    Isotropic =   212.1975   Anisotropy =    20.4192
   XX=   205.7860   YX=     4.9502   ZX=    -9.2098
   XY=     2.8964   YY=   210.9853   ZY=     6.9125
   XZ=    -8.8384   YZ=     7.0200   ZZ=   219.8212
   Eigenvalues:   197.8597   212.9225   225.8103
     21  C    Isotropic =   208.1698   Anisotropy =    10.6305
   XX=   205.8973   YX=     6.2047   ZX=    -0.8418
   XY=     5.0203   YY=   204.0070   ZY=    -5.6092
   XZ=    -1.7563   YZ=     3.3111   ZZ=   214.6050
   Eigenvalues:   199.2605   209.9920   215.2568
     22  C    Isotropic =    97.0110   Anisotropy =    98.4343
   XX=   156.8284   YX=     4.8960   ZX=     7.5440
   XY=     1.7572   YY=   106.8215   ZY=   -97.7763
   XZ=     0.0499   YZ=   -75.7731   ZZ=    27.3833
   Eigenvalues:   -28.4651   156.8643   162.6339
     23  O    Isotropic =  -136.4267   Anisotropy =   889.1742
   XX=   357.5150   YX=   270.3723   ZX=  -127.8572
   XY=   275.3334   YY=  -436.6667   ZY=    70.4770
   XZ=  -137.7400   YZ=    79.5764   ZZ=  -330.1285
   Eigenvalues:  -574.2076  -291.4286   456.3561
     24  O    Isotropic =   284.8717   Anisotropy =   138.6427
   XX=   346.1942   YX=    -2.6847   ZX=   -65.6155
   XY=    24.3218   YY=   353.4543   ZY=   141.0234
   XZ=   -42.9216   YZ=    -2.0083   ZZ=   154.9665
   Eigenvalues:   119.6791   357.6358   377.3002
     25  C    Isotropic =   197.5053   Anisotropy =    56.8774
   XX=   180.7395   YX=     0.2550   ZX=     7.5759
   XY=     0.8624   YY=   177.8263   ZY=     5.4808
   XZ=     7.1919   YZ=     4.8445   ZZ=   233.9501
   Eigenvalues:   177.3499   179.7423   235.4235
     26  C    Isotropic =   209.8865   Anisotropy =    42.2829
   XX=   217.7742   YX=   -21.6714   ZX=    -4.3501
   XY=   -22.1717   YY=   212.6446   ZY=     4.0198
   XZ=    -5.5998   YZ=     1.5044   ZZ=   199.2407
   Eigenvalues:   192.8660   198.7184   238.0751
     27  C    Isotropic =   206.5440   Anisotropy =    14.8488
   XX=   216.4198   YX=    -0.4194   ZX=     0.4353
   XY=    -0.5915   YY=   200.3125   ZY=    -5.1960
   XZ=    -0.0984   YZ=    -3.5191   ZZ=   202.8996
   Eigenvalues:   197.0558   206.1329   216.4432
     28  C    Isotropic =   120.0404   Anisotropy =   158.0016
   XX=   105.6203   YX=    17.0029   ZX=   -85.6434
   XY=    13.7021   YY=    93.2650   ZY=    -4.8414
   XZ=   -86.8691   YZ=    -5.3947   ZZ=   161.2359
   Eigenvalues:    41.0768    93.6696   225.3748
     29  C    Isotropic =   123.7834   Anisotropy =   150.1678
   XX=   131.8004   YX=   -21.0797   ZX=   -71.7142
   XY=   -28.8527   YY=    64.6781   ZY=   -34.7133
   XZ=   -60.0979   YZ=   -34.6882   ZZ=   174.8719
   Eigenvalues:    32.0364   115.4187   223.8953
     30  C    Isotropic =   118.9469   Anisotropy =   152.6444
   XX=   136.6868   YX=    30.8855   ZX=   -60.4339
   XY=    30.9498   YY=    38.9350   ZY=     5.2781
   XZ=   -52.3006   YZ=     2.3986   ZZ=   181.2188
   Eigenvalues:    27.0980   109.0328   220.7098
     31  C    Isotropic =   133.5410   Anisotropy =   143.1990
   XX=   149.1903   YX=   -17.0022   ZX=   -64.3810
   XY=   -16.5365   YY=    78.0882   ZY=   -24.7521
   XZ=   -66.4536   YZ=   -37.4752   ZZ=   173.3445
   Eigenvalues:    51.9629   119.6531   229.0070
     32  C    Isotropic =   108.3485   Anisotropy =   127.7961
   XX=   108.8820   YX=    18.1047   ZX=   -73.6883
   XY=     3.9496   YY=    91.3303   ZY=    -4.9067
   XZ=   -76.6465   YZ=    -3.7402   ZZ=   124.8333
   Eigenvalues:    40.7037    90.7960   193.5460
     33  C    Isotropic =   120.9829   Anisotropy =   135.6875
   XX=   138.4419   YX=     5.1320   ZX=   -57.7166
   XY=    21.5406   YY=    56.5429   ZY=     4.4723
   XZ=   -54.7552   YZ=     6.3398   ZZ=   167.9639
   Eigenvalues:    51.9884    99.5191   211.4413
     34  N    Isotropic =   273.2622   Anisotropy =    80.8163
   XX=   267.9024   YX=    -7.7765   ZX=    33.0862
   XY=   -19.4827   YY=   266.7068   ZY=   -41.6190
   XZ=    21.3627   YZ=   -28.0095   ZZ=   285.1774
   Eigenvalues:   238.0338   254.6131   327.1397
     35  C    Isotropic =   197.7042   Anisotropy =    15.2556
   XX=   197.7790   YX=     1.3181   ZX=     0.4966
   XY=    10.0540   YY=   196.6040   ZY=     5.7941
   XZ=     7.3737   YZ=     5.4458   ZZ=   198.7295
   Eigenvalues:   190.8997   194.3383   207.8746
     36  C    Isotropic =   180.7287   Anisotropy =    44.8522
   XX=   168.6379   YX=    19.6777   ZX=     7.3115
   XY=     7.5375   YY=   206.0526   ZY=     1.2239
   XZ=    21.4097   YZ=    -5.4631   ZZ=   167.4955
   Eigenvalues:   151.4038   180.1521   210.6301
     37  C    Isotropic =   175.6166   Anisotropy =    54.8059
   XX=   167.8036   YX=     2.2805   ZX=    -5.9418
   XY=     0.3574   YY=   172.5792   ZY=    33.1970
   XZ=    -4.1787   YZ=    30.1188   ZZ=   186.4669
   Eigenvalues:   146.2873   168.4086   212.1539
     38  C    Isotropic =   213.7478   Anisotropy =    18.7201
   XX=   216.1953   YX=    -0.9103   ZX=   -11.7032
   XY=     6.0750   YY=   210.0298   ZY=     0.1453
   XZ=    -9.0078   YZ=    -0.5021   ZZ=   215.0182
   Eigenvalues:   204.7082   210.3073   226.2278
     39  C    Isotropic =   212.0493   Anisotropy =    20.9506
   XX=   209.0692   YX=    -1.1005   ZX=    -5.5598
   XY=    -2.5652   YY=   214.6890   ZY=    12.1708
   XZ=    -5.5295   YZ=     9.5615   ZZ=   212.3898
   Eigenvalues:   201.3445   208.7871   226.0164
     40  C    Isotropic =   211.2083   Anisotropy =     8.1899
   XX=   211.3177   YX=     2.2391   ZX=    -1.1831
   XY=     2.6226   YY=   213.6385   ZY=    -2.6247
   XZ=    -0.8459   YZ=    -4.2076   ZZ=   208.6689
   Eigenvalues:   206.9183   210.0384   216.6683
     41  N    Isotropic =   227.5396   Anisotropy =    56.5815
   XX=   251.3702   YX=    25.6252   ZX=     7.5711
   XY=    24.2719   YY=   198.0229   ZY=    15.5783
   XZ=     3.8852   YZ=    15.4389   ZZ=   233.2256
   Eigenvalues:   184.9233   232.4348   265.2606
     42  C    Isotropic =   196.7356   Anisotropy =    47.2184
   XX=   183.5509   YX=   -18.2141   ZX=    -2.3258
   XY=   -21.5855   YY=   217.9284   ZY=    -8.5973
   XZ=     1.5782   YZ=    -6.7108   ZZ=   188.7277
   Eigenvalues:   173.5744   188.4179   228.2146
     43  C    Isotropic =   221.8727   Anisotropy =    10.5180
   XX=   213.2260   YX=     1.4034   ZX=    -6.6820
   XY=     2.0701   YY=   227.3867   ZY=     2.9218
   XZ=    -6.4927   YZ=     0.9448   ZZ=   225.0054
   Eigenvalues:   209.9546   226.7788   228.8847
     44  C    Isotropic =   217.8831   Anisotropy =    20.3022
   XX=   214.3438   YX=     4.5174   ZX=    -0.2255
   XY=     9.3011   YY=   228.2001   ZY=     4.4545
   XZ=    -1.4358   YZ=     2.0673   ZZ=   211.1055
   Eigenvalues:   209.0863   213.1452   231.4180
     45  C    Isotropic =   214.2276   Anisotropy =    28.1236
   XX=   212.2411   YX=    12.7111   ZX=   -13.3591
   XY=     3.7525   YY=   207.4514   ZY=     9.7618
   XZ=   -11.3015   YZ=    15.4003   ZZ=   222.9904
   Eigenvalues:   191.5204   218.1858   232.9767
     46  C    Isotropic =   186.6175   Anisotropy =    62.5763
   XX=   186.0307   YX=    27.0977   ZX=   -16.1327
   XY=    17.9808   YY=   179.2088   ZY=   -25.8851
   XZ=   -21.0872   YZ=   -15.8576   ZZ=   194.6129
   Eigenvalues:   159.1044   172.4130   228.3350
     47  C    Isotropic =   211.9475   Anisotropy =    24.7468
   XX=   225.8715   YX=     6.0461   ZX=     3.5440
   XY=     6.6934   YY=   211.5610   ZY=    -2.7232
   XZ=     3.4875   YZ=    -4.0459   ZZ=   198.4099
   Eigenvalues:   196.7055   210.6916   228.4453
     48  C    Isotropic =   208.3667   Anisotropy =    11.8012
   XX=   215.6974   YX=     1.6056   ZX=    -1.2447
   XY=    -6.1602   YY=   205.6632   ZY=    -4.6989
   XZ=    -2.6070   YZ=    -7.1392   ZZ=   203.7395
   Eigenvalues:   198.2090   210.6570   216.2342
     49  C    Isotropic =    96.1964   Anisotropy =    98.0693
   XX=    32.9560   YX=   -79.7297   ZX=    12.3953
   XY=   -96.5643   YY=   101.1659   ZY=     8.9647
   XZ=     1.2862   YZ=     0.3339   ZZ=   154.4672
   Eigenvalues:   -27.8291   154.8423   161.5759
     50  O    Isotropic =  -131.5330   Anisotropy =   881.8535
   XX=  -225.7069   YX=   -48.5757   ZX=   278.3573
   XY=   -68.4636   YY=  -267.0746   ZY=  -401.9760
   XZ=   259.2766   YZ=  -403.2873   ZZ=    98.1826
   Eigenvalues:  -561.8008  -289.1675   456.3694
     51  O    Isotropic =   282.9171   Anisotropy =   138.7609
   XX=   186.1225   YX=   -21.5053   ZX=    78.1468
   XY=   103.3650   YY=   363.1796   ZY=   -45.1311
   XZ=   133.2100   YZ=    14.6183   ZZ=   299.4493
   Eigenvalues:   115.4199   357.9071   375.4244
     52  C    Isotropic =   197.2285   Anisotropy =    58.2445
   XX=   228.0304   YX=     9.6476   ZX=   -17.3387
   XY=     9.8524   YY=   179.2813   ZY=    -4.1170
   XZ=   -17.5006   YZ=    -3.5272   ZZ=   184.3739
   Eigenvalues:   177.2164   178.4109   236.0582
     53  C    Isotropic =   209.5324   Anisotropy =    41.7805
   XX=   202.9667   YX=     5.8489   ZX=     9.1977
   XY=     8.2200   YY=   210.4629   ZY=    20.8434
   XZ=     8.4157   YZ=    20.6709   ZZ=   215.1678
   Eigenvalues:   191.8777   199.3335   237.3861
     54  O    Isotropic =    25.6694   Anisotropy =   462.3718
   XX=   258.2229   YX=    51.0164   ZX=   162.2458
   XY=    47.5149   YY=  -129.9482   ZY=    46.9547
   XZ=   155.6269   YZ=    44.2976   ZZ=   -51.2665
   Eigenvalues:  -153.2661  -103.6429   333.9173
     55  H    Isotropic =    25.6860   Anisotropy =    12.6983
   XX=    30.3698   YX=     3.9523   ZX=    -2.9876
   XY=     3.2918   YY=    26.1260   ZY=    -3.0681
   XZ=    -4.5404   YZ=    -3.1155   ZZ=    20.5623
   Eigenvalues:    18.7533    24.1532    34.1515
     56  H    Isotropic =    25.8064   Anisotropy =     6.8568
   XX=    27.6929   YX=    -2.1200   ZX=    -2.9172
   XY=    -1.2473   YY=    27.8358   ZY=     0.2056
   XZ=    -3.8859   YZ=     0.5108   ZZ=    21.8904
   Eigenvalues:    20.3009    26.7407    30.3775
     57  H    Isotropic =    26.5936   Anisotropy =     7.7778
   XX=    27.1116   YX=     1.9471   ZX=    -3.5032
   XY=     1.6033   YY=    30.6494   ZY=    -0.1234
   XZ=    -4.3113   YZ=    -0.3372   ZZ=    22.0197
   Eigenvalues:    19.8627    28.1393    31.7787
     58  H    Isotropic =    31.9400   Anisotropy =     7.4825
   XX=    32.3505   YX=     1.8455   ZX=    -3.8588
   XY=     1.0601   YY=    30.3371   ZY=    -0.8534
   XZ=    -4.2011   YZ=     0.9431   ZZ=    33.1323
   Eigenvalues:    28.1154    30.7762    36.9283
     59  H    Isotropic =    32.1238   Anisotropy =    13.9654
   XX=    38.2387   YX=    -5.3786   ZX=     2.1019
   XY=    -5.5790   YY=    31.2378   ZY=     1.6704
   XZ=     3.7419   YZ=     2.1780   ZZ=    26.8949
   Eigenvalues:    24.3055    30.6318    41.4341
     60  H    Isotropic =    32.9561   Anisotropy =     8.5128
   XX=    30.2487   YX=     3.5498   ZX=     0.2342
   XY=     1.4197   YY=    34.6365   ZY=    -4.8828
   XZ=     3.4643   YZ=    -3.6474   ZZ=    33.9832
   Eigenvalues:    27.0799    33.1571    38.6313
     61  H    Isotropic =    32.2717   Anisotropy =    15.9772
   XX=    39.7394   YX=     1.9291   ZX=     6.2225
   XY=     1.5641   YY=    29.0124   ZY=     1.7212
   XZ=     6.5032   YZ=     1.8371   ZZ=    28.0634
   Eigenvalues:    25.0328    28.8592    42.9232
     62  H    Isotropic =    32.6212   Anisotropy =    12.5855
   XX=    27.6986   YX=     0.2029   ZX=    -0.2814
   XY=    -0.8446   YY=    29.1699   ZY=    -0.9849
   XZ=     0.6046   YZ=     0.1670   ZZ=    40.9952
   Eigenvalues:    27.6312    29.2208    41.0116
     63  H    Isotropic =    32.0817   Anisotropy =    11.1501
   XX=    35.4448   YX=    -0.4383   ZX=    -5.1925
   XY=    -0.6972   YY=    29.1477   ZY=     3.2811
   XZ=    -5.1079   YZ=     2.7246   ZZ=    31.6526
   Eigenvalues:    26.2499    30.4800    39.5151
     64  H    Isotropic =    31.6002   Anisotropy =    13.6050
   XX=    33.9075   YX=    -4.6077   ZX=     4.1915
   XY=    -4.5239   YY=    35.4335   ZY=    -2.6166
   XZ=     4.4293   YZ=    -1.9263   ZZ=    25.4597
   Eigenvalues:    23.6377    30.4928    40.6703
     65  H    Isotropic =    32.3710   Anisotropy =    16.9247
   XX=    28.4302   YX=    -0.7923   ZX=     0.6367
   XY=    -0.6661   YY=    39.9704   ZY=     7.1104
   XZ=     0.7767   YZ=     7.7085   ZZ=    28.7125
   Eigenvalues:    24.7846    28.6743    43.6541
     66  H    Isotropic =    31.8676   Anisotropy =    12.5772
   XX=    29.5942   YX=     2.8415   ZX=    -3.0706
   XY=     2.9661   YY=    34.6797   ZY=    -5.5372
   XZ=    -2.8683   YZ=    -5.2887   ZZ=    31.3288
   Eigenvalues:    26.9652    28.3851    40.2524
     67  H    Isotropic =    32.5002   Anisotropy =    12.1860
   XX=    27.3758   YX=    -0.7876   ZX=     0.4475
   XY=    -1.0930   YY=    30.2681   ZY=     2.6144
   XZ=     0.8772   YZ=     2.9776   ZZ=    39.8566
   Eigenvalues:    26.9149    29.9614    40.6242
     68  H    Isotropic =    32.2725   Anisotropy =    15.4825
   XX=    37.6179   YX=     5.7289   ZX=     3.0150
   XY=     5.6107   YY=    33.2656   ZY=     3.0852
   XZ=     3.0143   YZ=     3.0919   ZZ=    25.9340
   Eigenvalues:    24.7161    29.5072    42.5941
     69  H    Isotropic =    33.4952   Anisotropy =    10.3193
   XX=    36.6587   YX=     2.1362   ZX=     5.1348
   XY=     3.6538   YY=    33.1754   ZY=     3.2310
   XZ=     3.3626   YZ=    -0.0417   ZZ=    30.6514
   Eigenvalues:    28.4499    31.6609    40.3747
     70  H    Isotropic =    32.5794   Anisotropy =    12.0992
   XX=    34.1271   YX=    -2.2444   ZX=    -4.2835
   XY=    -1.2492   YY=    25.6815   ZY=    -0.9358
   XZ=    -4.1143   YZ=    -2.1203   ZZ=    37.9296
   Eigenvalues:    24.8693    32.2233    40.6455
     71  H    Isotropic =    31.7676   Anisotropy =    18.7734
   XX=    43.6271   YX=     0.2786   ZX=    -3.5121
   XY=     1.3837   YY=    27.4455   ZY=    -0.8714
   XZ=    -3.3202   YZ=    -2.4355   ZZ=    24.2303
   Eigenvalues:    23.1256    27.8940    44.2832
     72  H    Isotropic =    32.0438   Anisotropy =    15.0178
   XX=    36.1001   YX=    -4.4755   ZX=     6.1265
   XY=    -3.3893   YY=    28.9657   ZY=    -2.9508
   XZ=     5.1498   YZ=    -5.0069   ZZ=    31.0655
   Eigenvalues:    25.8771    28.1986    42.0557
     73  H    Isotropic =    32.0176   Anisotropy =    15.6699
   XX=    39.0621   YX=     6.5739   ZX=    -1.9048
   XY=     5.9223   YY=    30.5435   ZY=     1.5868
   XZ=    -2.3873   YZ=     1.1830   ZZ=    26.4471
   Eigenvalues:    24.5299    29.0588    42.4642
     74  H    Isotropic =    30.3047   Anisotropy =     9.6302
   XX=    26.8329   YX=    -1.6345   ZX=    -1.7035
   XY=    -1.8182   YY=    32.5907   ZY=    -4.1589
   XZ=    -1.5664   YZ=    -5.1358   ZZ=    31.4905
   Eigenvalues:    24.7114    29.4778    36.7248
     75  H    Isotropic =    31.2422   Anisotropy =    13.1777
   XX=    38.5763   YX=    -3.2958   ZX=    -2.3759
   XY=    -2.2104   YY=    27.9441   ZY=     2.0949
   XZ=    -3.2613   YZ=     1.4076   ZZ=    27.2062
   Eigenvalues:    25.7613    27.9379    40.0273
     76  H    Isotropic =    30.5376   Anisotropy =    12.1283
   XX=    28.8849   YX=     1.9823   ZX=    -4.8592
   XY=     2.6337   YY=    28.2544   ZY=    -2.8856
   XZ=    -5.2002   YZ=    -2.5384   ZZ=    34.4736
   Eigenvalues:    25.6789    27.3109    38.6231
     77  H    Isotropic =    30.6652   Anisotropy =     7.5246
   XX=    33.6620   YX=    -0.6956   ZX=     3.0098
   XY=    -1.4996   YY=    25.6273   ZY=     0.7274
   XZ=     1.8534   YZ=     0.5734   ZZ=    32.7063
   Eigenvalues:    25.3408    30.9732    35.6816
     78  H    Isotropic =    30.5720   Anisotropy =    11.7777
   XX=    26.0175   YX=    -1.6926   ZX=    -1.5421
   XY=    -1.9297   YY=    33.2567   ZY=     4.6937
   XZ=    -2.2868   YZ=     5.3076   ZZ=    32.4419
   Eigenvalues:    25.4473    27.8450    38.4239
     79  H    Isotropic =    31.8808   Anisotropy =    12.0605
   XX=    31.5951   YX=    -5.2068   ZX=     2.1525
   XY=    -5.2124   YY=    33.4813   ZY=    -3.0104
   XZ=     3.9788   YZ=    -3.3829   ZZ=    30.5658
   Eigenvalues:    27.1843    28.5368    39.9211
     80  H    Isotropic =    30.7117   Anisotropy =    14.4065
   XX=    27.0889   YX=    -1.1631   ZX=    -2.4095
   XY=    -1.1681   YY=    36.8850   ZY=     6.2057
   XZ=    -1.9406   YZ=     5.9433   ZZ=    28.1612
   Eigenvalues:    24.2736    27.5454    40.3160
     81  H    Isotropic =    30.8669   Anisotropy =    11.1769
   XX=    34.9751   YX=    -1.5373   ZX=    -6.1793
   XY=    -1.9075   YY=    30.4434   ZY=    -0.0135
   XZ=    -5.4404   YZ=    -0.5841   ZZ=    27.1820
   Eigenvalues:    23.9029    30.3795    38.3181
     82  H    Isotropic =    29.9238   Anisotropy =     7.8823
   XX=    26.2550   YX=    -0.1138   ZX=     0.2158
   XY=    -0.3290   YY=    29.7417   ZY=     2.2080
   XZ=     0.0851   YZ=     3.3174   ZZ=    33.7746
   Eigenvalues:    26.2215    28.3711    35.1786
     83  H    Isotropic =    29.9189   Anisotropy =    12.4356
   XX=    27.1931   YX=     0.0168   ZX=    -0.0062
   XY=    -0.1279   YY=    35.5440   ZY=    -4.9156
   XZ=     0.0572   YZ=    -6.0060   ZZ=    27.0198
   Eigenvalues:    24.3547    27.1928    38.2094
     84  H    Isotropic =    25.1749   Anisotropy =    13.6827
   XX=    29.0774   YX=    -5.2025   ZX=     2.7257
   XY=    -4.9190   YY=    26.3656   ZY=    -2.7492
   XZ=     4.1729   YZ=    -2.5776   ZZ=    20.0818
   Eigenvalues:    18.7458    22.4823    34.2967
     85  H    Isotropic =    25.6897   Anisotropy =     6.7460
   XX=    27.3073   YX=     2.1041   ZX=     3.1681
   XY=     1.0890   YY=    27.6187   ZY=     0.0953
   XZ=     4.2381   YZ=     0.4993   ZZ=    22.1430
   Eigenvalues:    20.1792    26.7028    30.1870
     86  H    Isotropic =    26.6290   Anisotropy =     7.8669
   XX=    26.0651   YX=    -0.7274   ZX=     4.2735
   XY=    -0.9092   YY=    30.8765   ZY=    -1.4091
   XZ=     4.3785   YZ=    -1.8584   ZZ=    22.9453
   Eigenvalues:    19.8368    28.1765    31.8736
     87  H    Isotropic =    30.7865   Anisotropy =    12.7851
   XX=    38.9068   YX=    -0.5909   ZX=     1.7850
   XY=    -2.9403   YY=    27.5487   ZY=    -0.0577
   XZ=     0.6283   YZ=    -1.9303   ZZ=    25.9039
   Eigenvalues:    25.4263    27.6232    39.3099
     88  H    Isotropic =    32.3292   Anisotropy =    13.1581
   XX=    27.1706   YX=     3.5245   ZX=    -0.2506
   XY=     2.8572   YY=    31.3252   ZY=     4.8700
   XZ=     1.5532   YZ=     4.4914   ZZ=    38.4918
   Eigenvalues:    25.1862    30.7001    41.1013
     89  H    Isotropic =    33.2910   Anisotropy =     9.3525
   XX=    36.5467   YX=    -3.7113   ZX=    -2.9685
   XY=    -4.8983   YY=    33.2971   ZY=    -0.3622
   XZ=     0.4492   YZ=    -2.7156   ZZ=    30.0292
   Eigenvalues:    28.1861    32.1608    39.5259
     90  H    Isotropic =    32.6205   Anisotropy =    15.0718
   XX=    41.9797   YX=     0.8623   ZX=    -3.3532
   XY=     0.2717   YY=    27.7843   ZY=     0.8335
   XZ=    -2.8861   YZ=    -0.7135   ZZ=    28.0973
   Eigenvalues:    27.3522    27.8409    42.6683
     91  H    Isotropic =    32.3177   Anisotropy =    14.3752
   XX=    26.9927   YX=     0.4241   ZX=     0.1652
   XY=     0.6156   YY=    28.8397   ZY=    -2.8174
   XZ=     0.1395   YZ=    -3.5681   ZZ=    41.1207
   Eigenvalues:    26.7662    28.2858    41.9011
     92  H    Isotropic =    30.8825   Anisotropy =    13.9191
   XX=    24.7875   YX=    -1.2494   ZX=    -1.5488
   XY=     0.2561   YY=    33.9397   ZY=     6.5161
   XZ=    -0.5621   YZ=     5.7910   ZZ=    33.9201
   Eigenvalues:    24.6592    27.8263    40.1618
     93  H    Isotropic =    31.8223   Anisotropy =     8.5259
   XX=    36.2631   YX=    -2.1636   ZX=    -1.1593
   XY=    -2.7299   YY=    31.9423   ZY=     0.8721
   XZ=    -0.5097   YZ=     1.2269   ZZ=    27.2615
   Eigenvalues:    27.0253    30.9353    37.5062
     94  H    Isotropic =    31.2571   Anisotropy =    15.0798
   XX=    34.3754   YX=     6.6403   ZX=     1.9571
   XY=     7.2318   YY=    33.0380   ZY=     2.6721
   XZ=     1.7441   YZ=     2.4133   ZZ=    26.3579
   Eigenvalues:    25.4259    27.0351    41.3103
     95  H    Isotropic =    32.2105   Anisotropy =    16.7685
   XX=    28.8251   YX=    -6.9026   ZX=     0.9564
   XY=    -5.8322   YY=    40.1493   ZY=    -2.3845
   XZ=     0.5347   YZ=    -2.3168   ZZ=    27.6572
   Eigenvalues:    25.9093    27.3328    43.3896
     96  H    Isotropic =    32.0535   Anisotropy =    14.7154
   XX=    40.9667   YX=     1.8872   ZX=    -2.9964
   XY=     2.1390   YY=    29.2502   ZY=     0.4899
   XZ=    -3.0929   YZ=    -0.2740   ZZ=    25.9435
   Eigenvalues:    25.2852    29.0114    41.8638
     97  H    Isotropic =    32.3367   Anisotropy =    14.5050
   XX=    26.4209   YX=    -0.5048   ZX=     2.1492
   XY=     0.2762   YY=    34.4539   ZY=    -6.2082
   XZ=     1.6322   YZ=    -6.8191   ZZ=    36.1352
   Eigenvalues:    25.8171    29.1863    42.0067
     98  H    Isotropic =    32.8680   Anisotropy =    12.5202
   XX=    32.7671   YX=     3.2958   ZX=    -5.0949
   XY=     4.2349   YY=    32.6260   ZY=    -4.0738
   XZ=    -5.8375   YZ=    -2.1651   ZZ=    33.2108
   Eigenvalues:    27.4178    29.9714    41.2147
     99  H    Isotropic =    32.5929   Anisotropy =    11.3192
   XX=    38.5608   YX=    -3.4082   ZX=     1.1106
   XY=    -4.4031   YY=    28.7691   ZY=    -0.0295
   XZ=     2.8323   YZ=     2.7669   ZZ=    30.4488
   Eigenvalues:    26.4275    31.2121    40.1390
    100  H    Isotropic =    31.1856   Anisotropy =    13.4565
   XX=    28.1548   YX=    -2.1122   ZX=    -5.8521
   XY=    -0.5791   YY=    29.5480   ZY=     3.1007
   XZ=    -4.4767   YZ=     5.0699   ZZ=    35.8540
   Eigenvalues:    25.4184    27.9818    40.1566
    101  H    Isotropic =    30.3560   Anisotropy =    10.5129
   XX=    27.8476   YX=    -2.6246   ZX=     2.4550
   XY=    -3.0372   YY=    28.7609   ZY=    -3.4863
   XZ=     5.1096   YZ=    -0.8609   ZZ=    34.4595
   Eigenvalues:    25.1077    28.5957    37.3646
    102  H    Isotropic =    31.5755   Anisotropy =     9.8361
   XX=    34.1601   YX=    -3.8931   ZX=    -1.3596
   XY=    -2.8201   YY=    32.3252   ZY=     4.2093
   XZ=    -1.3341   YZ=     4.1049   ZZ=    28.2411
   Eigenvalues:    25.5962    30.9973    38.1328
    103  H    Isotropic =    32.1321   Anisotropy =    14.7758
   XX=    30.0456   YX=    -1.8052   ZX=     5.8101
   XY=    -0.9669   YY=    32.3378   ZY=    -6.2866
   XZ=     5.0685   YZ=    -6.8834   ZZ=    34.0128
   Eigenvalues:    24.7450    29.6686    41.9826
    104  H    Isotropic =    31.2691   Anisotropy =    12.2967
   XX=    30.3027   YX=     1.9024   ZX=     5.3085
   XY=     2.3252   YY=    27.4862   ZY=     0.7484
   XZ=     4.9540   YZ=     2.0277   ZZ=    36.0183
   Eigenvalues:    26.0650    28.2754    39.4669
    105  H    Isotropic =    30.5236   Anisotropy =    12.0676
   XX=    32.9322   YX=     5.4760   ZX=     1.4147
   XY=     4.9109   YY=    32.9597   ZY=     2.4019
   XZ=     0.7830   YZ=     2.0355   ZZ=    25.6790
   Eigenvalues:    25.0303    27.9720    38.5687
    106  H    Isotropic =    30.6341   Anisotropy =     8.0379
   XX=    31.6421   YX=     1.4261   ZX=    -2.1288
   XY=     1.7053   YY=    26.2858   ZY=    -0.9326
   XZ=    -2.9573   YZ=    -1.6466   ZZ=    33.9746
   Eigenvalues:    25.8131    30.0966    35.9927
    107  H    Isotropic =    30.5753   Anisotropy =    11.8515
   XX=    36.6801   YX=    -3.2331   ZX=     2.1576
   XY=    -3.7786   YY=    29.1678   ZY=    -1.4045
   XZ=     1.8630   YZ=    -0.8505   ZZ=    25.8780
   Eigenvalues:    25.4241    27.8254    38.4763
    108  H    Isotropic =    30.9678   Anisotropy =    10.9920
   XX=    31.1616   YX=    -0.4720   ZX=     6.2097
   XY=    -0.0625   YY=    30.2707   ZY=     1.9758
   XZ=     7.4587   YZ=     1.5211   ZZ=    31.4711
   Eigenvalues:    24.1497    30.4579    38.2958
    109  H    Isotropic =    30.7838   Anisotropy =    14.7549
   XX=    29.9991   YX=     5.9701   ZX=     1.3950
   XY=     5.9758   YY=    37.1563   ZY=     0.2288
   XZ=     2.3718   YZ=     0.1729   ZZ=    25.1961
   Eigenvalues:    24.1573    27.5738    40.6204
    110  H    Isotropic =    32.0305   Anisotropy =    10.8394
   XX=    30.5835   YX=    -1.7315   ZX=    -3.4200
   XY=    -1.8337   YY=    32.8111   ZY=     5.4635
   XZ=    -1.0143   YZ=     5.6973   ZZ=    32.6969
   Eigenvalues:    27.1355    29.6992    39.2568
 End of Minotr F.D. properties file   721 does not exist.
 End of Minotr F.D. properties file   722 does not exist.
 End of Minotr F.D. properties file   788 does not exist.
 Hyperfine terms turned off by default for NAtoms > 100.

 **********************************************************************

            Population analysis using the SCF Density.

 **********************************************************************

 Orbital symmetries:
       Occupied  (A) (A) (A) (A) (A) (A) (A) (A) (A) (A) (A) (A)
                 (A) (A) (A) (A) (A) (A) (A) (A) (A) (A) (A) (A)
                 (A) (A) (A) (A) (A) (A) (A) (A) (A) (A) (A) (A)
                 (A) (A) (A) (A) (A) (A) (A) (A) (A) (A) (A) (A)
                 (A) (A) (A) (A) (A) (A) (A) (A) (A) (A) (A) (A)
                 (A) (A) (A) (A) (A) (A) (A) (A) (A) (A) (A) (A)
                 (A) (A) (A) (A) (A) (A) (A) (A) (A) (A) (A) (A)
                 (A) (A) (A) (A) (A) (A) (A) (A) (A) (A) (A) (A)
                 (A) (A) (A) (A) (A) (A) (A) (A) (A) (A) (A) (A)
                 (A) (A) (A) (A) (A) (A) (A) (A) (A) (A) (A) (A)
                 (A) (A) (A) (A) (A) (A) (A) (A) (A) (A) (A) (A)
                 (A) (A) (A) (A) (A) (A) (A) (A) (A) (A) (A) (A)
                 (A) (A) (A) (A) (A) (A) (A) (A) (A) (A) (A) (A)
                 (A) (A) (A) (A) (A) (A) (A) (A) (A) (A) (A) (A)
                 (A) (A) (A) (A) (A) (A) (A) (A) (A) (A) (A) (A)
                 (A) (A) (A) (A) (A) (A) (A) (A) (A) (A) (A) (A)
                 (A) (A) (A) (A) (A)
       Virtual   (A) (A) (A) (A) (A) (A) (A) (A) (A) (A) (A) (A)
                 (A) (A) (A) (A) (A) (A) (A) (A) (A) (A) (A) (A)
                 (A) (A) (A) (A) (A) (A) (A) (A) (A) (A) (A) (A)
                 (A) (A) (A) (A) (A) (A) (A) (A) (A) (A) (A) (A)
                 (A) (A) (A) (A) (A) (A) (A) (A) (A) (A) (A) (A)
                 (A) (A) (A) (A) (A) (A) (A) (A) (A) (A) (A) (A)
                 (A) (A) (A) (A) (A) (A) (A) (A) (A) (A) (A) (A)
                 (A) (A) (A) (A) (A) (A) (A) (A) (A) (A) (A) (A)
                 (A) (A) (A) (A) (A) (A) (A) (A) (A) (A) (A) (A)
                 (A) (A) (A) (A) (A) (A) (A) (A) (A) (A) (A) (A)
                 (A) (A) (A) (A) (A) (A) (A) (A) (A)
 The electronic state is 1-A.
 Alpha  occ. eigenvalues --  -20.31334 -20.29591 -20.25316 -20.23605 -19.91834
 Alpha  occ. eigenvalues --  -15.48308 -15.34210 -15.32832 -15.28982 -11.17341
 Alpha  occ. eigenvalues --  -11.15443 -11.11085 -11.10393 -11.09822 -11.09386
 Alpha  occ. eigenvalues --  -11.08820 -11.08616 -11.08532 -11.08286 -11.07349
 Alpha  occ. eigenvalues --  -11.07292 -11.07275 -11.07230 -11.06069 -11.05741
 Alpha  occ. eigenvalues --  -11.05686 -11.05657 -11.05451 -11.05429 -11.05314
 Alpha  occ. eigenvalues --  -11.05294 -11.05008 -11.04951 -11.04922 -11.04732
 Alpha  occ. eigenvalues --  -11.04639 -11.04266 -11.04182 -11.02963 -11.02938
 Alpha  occ. eigenvalues --  -11.02892 -11.02874 -11.02823 -11.02608 -11.02262
 Alpha  occ. eigenvalues --  -11.02116 -11.02067 -11.01977 -11.01697 -11.01639
 Alpha  occ. eigenvalues --  -11.01231 -11.01194 -11.00970 -11.00842  -1.38556
 Alpha  occ. eigenvalues --   -1.36870  -1.28390  -1.28140  -1.26543  -1.21602
 Alpha  occ. eigenvalues --   -1.20706  -1.18243  -1.12015  -1.09183  -1.08323
 Alpha  occ. eigenvalues --   -1.07344  -1.06306  -1.03916  -1.03598  -1.00756
 Alpha  occ. eigenvalues --   -0.99888  -0.98679  -0.97922  -0.97243  -0.96862
 Alpha  occ. eigenvalues --   -0.95521  -0.94470  -0.93847  -0.93227  -0.92603
 Alpha  occ. eigenvalues --   -0.92291  -0.91093  -0.90614  -0.89290  -0.87835
 Alpha  occ. eigenvalues --   -0.86436  -0.84447  -0.82633  -0.82368  -0.80770
 Alpha  occ. eigenvalues --   -0.80577  -0.79201  -0.78740  -0.78243  -0.76196
 Alpha  occ. eigenvalues --   -0.75924  -0.74892  -0.73281  -0.73140  -0.72290
 Alpha  occ. eigenvalues --   -0.71458  -0.69738  -0.69383  -0.68635  -0.66665
 Alpha  occ. eigenvalues --   -0.65490  -0.64733  -0.64479  -0.63974  -0.63549
 Alpha  occ. eigenvalues --   -0.62608  -0.61917  -0.61821  -0.61384  -0.60829
 Alpha  occ. eigenvalues --   -0.60372  -0.59599  -0.59131  -0.58980  -0.58704
 Alpha  occ. eigenvalues --   -0.58503  -0.58147  -0.57666  -0.57214  -0.57007
 Alpha  occ. eigenvalues --   -0.56751  -0.56633  -0.56018  -0.55895  -0.55678
 Alpha  occ. eigenvalues --   -0.55246  -0.55137  -0.55098  -0.54230  -0.53840
 Alpha  occ. eigenvalues --   -0.53553  -0.52981  -0.52835  -0.52330  -0.52187
 Alpha  occ. eigenvalues --   -0.51620  -0.51368  -0.50798  -0.50719  -0.50481
 Alpha  occ. eigenvalues --   -0.49921  -0.49768  -0.49392  -0.49312  -0.48862
 Alpha  occ. eigenvalues --   -0.48344  -0.48277  -0.47763  -0.47490  -0.46993
 Alpha  occ. eigenvalues --   -0.46667  -0.46055  -0.45788  -0.45607  -0.45442
 Alpha  occ. eigenvalues --   -0.44771  -0.44621  -0.44589  -0.44272  -0.43859
 Alpha  occ. eigenvalues --   -0.43775  -0.42849  -0.42722  -0.42508  -0.42054
 Alpha  occ. eigenvalues --   -0.41686  -0.41661  -0.41447  -0.40879  -0.40340
 Alpha  occ. eigenvalues --   -0.40183  -0.39391  -0.39139  -0.39035  -0.37856
 Alpha  occ. eigenvalues --   -0.36796  -0.36393  -0.36155  -0.35053  -0.34755
 Alpha  occ. eigenvalues --   -0.33937  -0.33284  -0.32634  -0.32284  -0.31105
 Alpha  occ. eigenvalues --   -0.27410  -0.26342  -0.26253  -0.21613  -0.20069
 Alpha  occ. eigenvalues --   -0.15508  -0.15247
 Alpha virt. eigenvalues --    0.26524   0.26981   0.27946   0.29541   0.29751
 Alpha virt. eigenvalues --    0.31605   0.46223   0.46705   0.48407   0.49163
 Alpha virt. eigenvalues --    0.49459   0.50217   0.50775   0.51567   0.52760
 Alpha virt. eigenvalues --    0.52989   0.54186   0.54842   0.55554   0.55923
 Alpha virt. eigenvalues --    0.56928   0.57979   0.58133   0.58482   0.59025
 Alpha virt. eigenvalues --    0.59229   0.59396   0.59593   0.60280   0.60849
 Alpha virt. eigenvalues --    0.61766   0.62122   0.62394   0.62606   0.62939
 Alpha virt. eigenvalues --    0.63587   0.63894   0.64079   0.64311   0.64595
 Alpha virt. eigenvalues --    0.64894   0.65082   0.65258   0.65387   0.65823
 Alpha virt. eigenvalues --    0.66070   0.66382   0.66763   0.66883   0.67465
 Alpha virt. eigenvalues --    0.67505   0.67744   0.68439   0.68662   0.68836
 Alpha virt. eigenvalues --    0.69118   0.69195   0.69477   0.69790   0.70111
 Alpha virt. eigenvalues --    0.70323   0.70378   0.70743   0.70787   0.71012
 Alpha virt. eigenvalues --    0.71296   0.71922   0.72255   0.72331   0.73090
 Alpha virt. eigenvalues --    0.73176   0.73355   0.73559   0.73642   0.73966
 Alpha virt. eigenvalues --    0.74568   0.74783   0.74952   0.75115   0.75307
 Alpha virt. eigenvalues --    0.75516   0.75946   0.76019   0.76235   0.76574
 Alpha virt. eigenvalues --    0.76669   0.77032   0.77285   0.77530   0.77649
 Alpha virt. eigenvalues --    0.77811   0.78452   0.78668   0.79257   0.79376
 Alpha virt. eigenvalues --    0.79594   0.80155   0.80304   0.80447   0.80859
 Alpha virt. eigenvalues --    0.81206   0.81801   0.82091   0.82148   0.82537
 Alpha virt. eigenvalues --    0.82946   0.83715   0.83963   0.84824   0.85876
 Alpha virt. eigenvalues --    0.85982   0.86631   0.87132   0.87301   0.87966
 Alpha virt. eigenvalues --    0.88362   0.89937   0.90808   0.91789   0.94067
 Alpha virt. eigenvalues --    0.94937   0.95801   0.98545   1.00569   1.02307
 Alpha virt. eigenvalues --    1.10731   1.11764   1.15772   1.16631
          Condensed to atoms (all electrons):
 Mulliken charges:
               1
     1  C   -0.077586
     2  C    0.000398
     3  C   -0.063590
     4  C   -0.090479
     5  C    0.089405
     6  C   -0.013137
     7  N   -0.283232
     8  C    0.015324
     9  C    0.129419
    10  C    0.039664
    11  C   -0.114552
    12  C   -0.107873
    13  C    0.041758
    14  N   -0.291492
    15  C   -0.012947
    16  C   -0.095756
    17  C   -0.100327
    18  C   -0.099548
    19  C   -0.016529
    20  C   -0.104075
    21  C   -0.063828
    22  C    0.318218
    23  O   -0.274446
    24  O   -0.256176
    25  C   -0.055246
    26  C   -0.078474
    27  C   -0.109437
    28  C    0.002268
    29  C   -0.074508
    30  C   -0.059572
    31  C   -0.089496
    32  C    0.089736
    33  C   -0.019521
    34  N   -0.285022
    35  C    0.014388
    36  C    0.128334
    37  C    0.033843
    38  C   -0.115826
    39  C   -0.104087
    40  C    0.032373
    41  N   -0.074868
    42  C   -0.008148
    43  C   -0.102148
    44  C   -0.102227
    45  C   -0.120357
    46  C   -0.013129
    47  C   -0.110980
    48  C   -0.066014
    49  C    0.321110
    50  O   -0.278846
    51  O   -0.254564
    52  C   -0.055320
    53  C   -0.079815
    54  O   -0.457056
    55  H    0.064169
    56  H    0.053959
    57  H    0.057666
    58  H    0.046095
    59  H    0.048322
    60  H    0.053234
    61  H    0.047393
    62  H    0.049413
    63  H    0.050491
    64  H    0.060179
    65  H    0.048940
    66  H    0.053259
    67  H    0.047241
    68  H    0.049434
    69  H    0.053910
    70  H    0.063154
    71  H    0.053521
    72  H    0.056344
    73  H    0.047099
    74  H    0.080000
    75  H    0.062182
    76  H    0.071022
    77  H    0.073209
    78  H    0.075487
    79  H    0.054236
    80  H    0.070406
    81  H    0.075682
    82  H    0.060127
    83  H    0.057020
    84  H    0.074588
    85  H    0.058165
    86  H    0.059351
    87  H    0.091668
    88  H    0.053473
    89  H    0.058307
    90  H    0.057730
    91  H    0.051885
    92  H    0.087127
    93  H    0.060646
    94  H    0.076372
    95  H    0.059941
    96  H    0.064224
    97  H    0.055451
    98  H    0.072214
    99  H    0.070637
   100  H    0.074375
   101  H    0.092602
   102  H    0.064857
   103  H    0.056197
   104  H    0.067055
   105  H    0.078685
   106  H    0.075786
   107  H    0.073260
   108  H    0.076753
   109  H    0.072652
   110  H    0.056802
 Sum of Mulliken charges =  -0.00000
 Mulliken charges with hydrogens summed into heavy atoms:
               1
     1  C   -0.013417
     2  C    0.000398
     3  C   -0.009631
     4  C   -0.032814
     5  C    0.089405
     6  C   -0.013137
     7  N   -0.283232
     8  C    0.015324
     9  C    0.129419
    10  C    0.085759
    11  C   -0.012996
    12  C   -0.011067
    13  C    0.041758
    14  N   -0.291492
    15  C    0.097724
    16  C    0.006443
    17  C   -0.003652
    18  C    0.017517
    19  C    0.093336
    20  C    0.023023
    21  C   -0.001646
    22  C    0.318218
    23  O   -0.274446
    24  O   -0.256176
    25  C    0.164473
    26  C    0.121850
    27  C    0.007710
    28  C    0.002268
    29  C    0.000080
    30  C   -0.001407
    31  C   -0.030145
    32  C    0.089736
    33  C   -0.019521
    34  N   -0.285022
    35  C    0.014388
    36  C    0.128334
    37  C    0.125512
    38  C   -0.004047
    39  C    0.005529
    40  C    0.032373
    41  N   -0.074868
    42  C    0.139625
    43  C    0.034165
    44  C    0.017448
    45  C    0.022493
    46  C    0.153848
    47  C    0.010074
    48  C    0.001041
    49  C    0.321110
    50  O   -0.278846
    51  O   -0.254564
    52  C    0.172411
    53  C    0.126392
    54  O   -0.457056
 Electronic spatial extent (au):  <R**2>=          36983.2645
 Charge=             -0.0000 electrons
 Dipole moment (field-independent basis, Debye):
    X=              3.0551    Y=              1.7277    Z=              2.0795  Tot=              4.0796
 Quadrupole moment (field-independent basis, Debye-Ang):
   XX=           -273.3282   YY=           -299.7997   ZZ=           -298.1303
   XY=             -6.0977   XZ=              9.3076   YZ=              0.9532
 Traceless Quadrupole moment (field-independent basis, Debye-Ang):
   XX=             17.0912   YY=             -9.3803   ZZ=             -7.7109
   XY=             -6.0977   XZ=              9.3076   YZ=              0.9532
 Octapole moment (field-independent basis, Debye-Ang**2):
  XXX=             54.6111  YYY=             -1.0886  ZZZ=             62.2667  XYY=             39.7290
  XXY=             50.2030  XXZ=             37.0197  XZZ=             24.5139  YZZ=             15.5604
  YYZ=             15.8529  XYZ=            -22.5995
 Hexadecapole moment (field-independent basis, Debye-Ang**3):
 XXXX=         -30548.9581 YYYY=          -8977.5135 ZZZZ=          -4720.0069 XXXY=            260.6217
 XXXZ=             47.2165 YYYX=           -122.2695 YYYZ=             55.3667 ZZZX=           -265.0445
 ZZZY=            114.4015 XXYY=          -6863.2918 XXZZ=          -6002.2076 YYZZ=          -2393.4984
 XXYZ=            154.8079 YYXZ=             15.0701 ZZXY=           -116.2824
 N-N= 8.159647235015D+03 E-N=-2.169613122461D+04  KE= 2.279162384996D+03
 ******************************Gaussian NBO Version 3.1******************************
             N A T U R A L   A T O M I C   O R B I T A L   A N D
          N A T U R A L   B O N D   O R B I T A L   A N A L Y S I S
 ******************************Gaussian NBO Version 3.1******************************
       /RESON  / : Allow strongly delocalized NBO set
       /NLMO   / : Form Natural Localized Molecular Orbitals
       /NMR /    : Analyze NMR Sheilding Tensor 

 Analyzing the SCF density

 Job title: pleiokomenine_C_1a                                              

 Storage needed:    355564 in NPA,    438187 in NBO,   2133784 in NLMO ( 104796000 available)
 GSVD:  LWork=     -108884 too small for GESVD, short by      536270 words or      536270 for optimal perf.


 NATURAL POPULATIONS:  Natural atomic orbital occupancies 
                                                          
   NAO  Atom  No  lang   Type(AO)    Occupancy      Energy
 ----------------------------------------------------------
     1    C    1  S      Cor( 1S)     1.99992     -10.93694
     2    C    1  S      Val( 2S)     1.07902      -0.16879
     3    C    1  px     Val( 2p)     0.98854       0.11351
     4    C    1  py     Val( 2p)     0.98231       0.16445
     5    C    1  pz     Val( 2p)     1.01083       0.06440
 
     6    C    2  S      Cor( 1S)     1.99990     -10.94938
     7    C    2  S      Val( 2S)     1.07810      -0.17676
     8    C    2  px     Val( 2p)     0.95326       0.13065
     9    C    2  py     Val( 2p)     0.96084       0.18353
    10    C    2  pz     Val( 2p)     0.99309       0.07342
 
    11    C    3  S      Cor( 1S)     1.99994     -10.94051
    12    C    3  S      Val( 2S)     1.08336      -0.17536
    13    C    3  px     Val( 2p)     0.98324       0.11804
    14    C    3  py     Val( 2p)     0.97410       0.16521
    15    C    3  pz     Val( 2p)     0.99519       0.06984
 
    16    C    4  S      Cor( 1S)     1.99993     -10.93390
    17    C    4  S      Val( 2S)     1.07189      -0.16630
    18    C    4  px     Val( 2p)     1.01020       0.10609
    19    C    4  py     Val( 2p)     0.97485       0.16853
    20    C    4  pz     Val( 2p)     1.03075       0.05949
 
    21    C    5  S      Cor( 1S)     1.99985     -10.98023
    22    C    5  S      Val( 2S)     1.06120      -0.17838
    23    C    5  px     Val( 2p)     0.91749       0.12318
    24    C    5  py     Val( 2p)     0.97898       0.16440
    25    C    5  pz     Val( 2p)     0.92945       0.07849
 
    26    C    6  S      Cor( 1S)     1.99990     -10.93939
    27    C    6  S      Val( 2S)     1.08492      -0.18165
    28    C    6  px     Val( 2p)     0.99076       0.12313
    29    C    6  py     Val( 2p)     0.95347       0.15472
    30    C    6  pz     Val( 2p)     0.99301       0.08739
 
    31    N    7  S      Cor( 1S)     1.99998     -15.26115
    32    N    7  S      Val( 2S)     1.40765      -0.58697
    33    N    7  px     Val( 2p)     1.13712       0.00164
    34    N    7  py     Val( 2p)     1.06734       0.02501
    35    N    7  pz     Val( 2p)     1.65994      -0.20745
 
    36    C    8  S      Cor( 1S)     1.99996     -10.99566
    37    C    8  S      Val( 2S)     1.10672      -0.22056
    38    C    8  px     Val( 2p)     0.94425       0.11021
    39    C    8  py     Val( 2p)     0.95463       0.12926
    40    C    8  pz     Val( 2p)     0.97910       0.08480
 
    41    C    9  S      Cor( 1S)     1.99996     -11.04112
    42    C    9  S      Val( 2S)     1.11273      -0.24738
    43    C    9  px     Val( 2p)     0.94963       0.09595
    44    C    9  py     Val( 2p)     0.83944       0.13509
    45    C    9  pz     Val( 2p)     0.92497       0.09274
 
    46    C   10  S      Cor( 1S)     1.99994     -11.00132
    47    C   10  S      Val( 2S)     1.09273      -0.20201
    48    C   10  px     Val( 2p)     0.96427       0.09412
    49    C   10  py     Val( 2p)     0.91540       0.11126
    50    C   10  pz     Val( 2p)     0.95664       0.11912
 
    51    C   11  S      Cor( 1S)     1.99994     -10.97082
    52    C   11  S      Val( 2S)     1.10431      -0.20571
    53    C   11  px     Val( 2p)     1.00951       0.08985
    54    C   11  py     Val( 2p)     0.98849       0.09736
    55    C   11  pz     Val( 2p)     0.98189       0.09340
 
    56    C   12  S      Cor( 1S)     1.99996     -10.96689
    57    C   12  S      Val( 2S)     1.08872      -0.18716
    58    C   12  px     Val( 2p)     1.01300       0.09650
    59    C   12  py     Val( 2p)     0.97820       0.09891
    60    C   12  pz     Val( 2p)     0.99813       0.10022
 
    61    C   13  S      Cor( 1S)     1.99998     -10.99302
    62    C   13  S      Val( 2S)     1.10020      -0.21004
    63    C   13  px     Val( 2p)     0.94529       0.12103
    64    C   13  py     Val( 2p)     0.94638       0.12260
    65    C   13  pz     Val( 2p)     0.94472       0.12111
 
    66    N   14  S      Cor( 1S)     1.99999     -15.22040
    67    N   14  S      Val( 2S)     1.42341      -0.56707
    68    N   14  px     Val( 2p)     1.33643      -0.05699
    69    N   14  py     Val( 2p)     1.09116       0.04532
    70    N   14  pz     Val( 2p)     1.42963      -0.09110
 
    71    C   15  S      Cor( 1S)     1.99994     -10.99263
    72    C   15  S      Val( 2S)     1.07104      -0.17433
    73    C   15  px     Val( 2p)     0.98476       0.10131
    74    C   15  py     Val( 2p)     0.91941       0.11852
    75    C   15  pz     Val( 2p)     0.98373       0.10880
 
    76    C   16  S      Cor( 1S)     1.99996     -10.96548
    77    C   16  S      Val( 2S)     1.08471      -0.17926
    78    C   16  px     Val( 2p)     0.97246       0.11161
    79    C   16  py     Val( 2p)     0.98863       0.10713
    80    C   16  pz     Val( 2p)     1.01282       0.10519
 
    81    C   17  S      Cor( 1S)     1.99995     -10.96863
    82    C   17  S      Val( 2S)     1.09063      -0.18696
    83    C   17  px     Val( 2p)     0.99976       0.10336
    84    C   17  py     Val( 2p)     0.97447       0.10639
    85    C   17  pz     Val( 2p)     0.99933       0.10113
 
    86    C   18  S      Cor( 1S)     1.99994     -10.96665
    87    C   18  S      Val( 2S)     1.09378      -0.18810
    88    C   18  px     Val( 2p)     0.99101       0.09911
    89    C   18  py     Val( 2p)     0.99083       0.09820
    90    C   18  pz     Val( 2p)     0.99021       0.10732
 
    91    C   19  S      Cor( 1S)     1.99995     -10.99129
    92    C   19  S      Val( 2S)     1.07244      -0.17594
    93    C   19  px     Val( 2p)     0.93455       0.12889
    94    C   19  py     Val( 2p)     0.96576       0.09170
    95    C   19  pz     Val( 2p)     0.99064       0.09790
 
    96    C   20  S      Cor( 1S)     1.99992     -10.97133
    97    C   20  S      Val( 2S)     1.10196      -0.19970
    98    C   20  px     Val( 2p)     1.01217       0.09755
    99    C   20  py     Val( 2p)     0.96578       0.10718
   100    C   20  pz     Val( 2p)     0.98656       0.09633
 
   101    C   21  S      Cor( 1S)     1.99994     -10.99986
   102    C   21  S      Val( 2S)     1.11387      -0.23179
   103    C   21  px     Val( 2p)     1.00821       0.07729
   104    C   21  py     Val( 2p)     0.99397       0.07867
   105    C   21  pz     Val( 2p)     0.96397       0.09117
 
   106    C   22  S      Cor( 1S)     1.99991     -11.10164
   107    C   22  S      Val( 2S)     1.05634      -0.25128
   108    C   22  px     Val( 2p)     0.86218       0.00772
   109    C   22  py     Val( 2p)     0.77468       0.18913
   110    C   22  pz     Val( 2p)     0.90616       0.10889
 
   111    O   23  S      Cor( 1S)     1.99999     -20.08843
   112    O   23  S      Val( 2S)     1.80829      -1.04751
   113    O   23  px     Val( 2p)     1.28102      -0.12435
   114    O   23  py     Val( 2p)     1.47871      -0.15940
   115    O   23  pz     Val( 2p)     1.74043      -0.26392
 
   116    O   24  S      Cor( 1S)     1.99999     -20.20537
   117    O   24  S      Val( 2S)     1.72980      -1.01820
   118    O   24  px     Val( 2p)     1.80748      -0.34682
   119    O   24  py     Val( 2p)     1.49103      -0.21028
   120    O   24  pz     Val( 2p)     1.23965      -0.09885
 
   121    C   25  S      Cor( 1S)     1.99984     -11.03853
   122    C   25  S      Val( 2S)     1.07648      -0.21984
   123    C   25  px     Val( 2p)     1.03145       0.04913
   124    C   25  py     Val( 2p)     1.04402       0.04157
   125    C   25  pz     Val( 2p)     0.81313       0.09378
 
   126    C   26  S      Cor( 1S)     1.99992     -11.00850
   127    C   26  S      Val( 2S)     1.06496      -0.18870
   128    C   26  px     Val( 2p)     0.94417       0.08892
   129    C   26  py     Val( 2p)     0.97564       0.07793
   130    C   26  pz     Val( 2p)     1.03154       0.06813
 
   131    C   27  S      Cor( 1S)     1.99995     -10.97859
   132    C   27  S      Val( 2S)     1.08250      -0.18341
   133    C   27  px     Val( 2p)     0.97954       0.10052
   134    C   27  py     Val( 2p)     1.02952       0.08849
   135    C   27  pz     Val( 2p)     0.99465       0.09715
 
   136    C   28  S      Cor( 1S)     1.99990     -10.95513
   137    C   28  S      Val( 2S)     1.07796      -0.18169
   138    C   28  px     Val( 2p)     0.95547       0.12489
   139    C   28  py     Val( 2p)     0.95974       0.17758
   140    C   28  pz     Val( 2p)     0.99098       0.06843
 
   141    C   29  S      Cor( 1S)     1.99992     -10.94543
   142    C   29  S      Val( 2S)     1.08174      -0.17784
   143    C   29  px     Val( 2p)     0.99032       0.10418
   144    C   29  py     Val( 2p)     0.98716       0.15352
   145    C   29  pz     Val( 2p)     0.99561       0.06363
 
   146    C   30  S      Cor( 1S)     1.99994     -10.94900
   147    C   30  S      Val( 2S)     1.08400      -0.18266
   148    C   30  px     Val( 2p)     0.98078       0.10942
   149    C   30  py     Val( 2p)     0.97753       0.15624
   150    C   30  pz     Val( 2p)     0.98805       0.06655
 
   151    C   31  S      Cor( 1S)     1.99993     -10.94266
   152    C   31  S      Val( 2S)     1.07216      -0.17514
   153    C   31  px     Val( 2p)     1.01049       0.09461
   154    C   31  py     Val( 2p)     0.97288       0.16092
   155    C   31  pz     Val( 2p)     1.03147       0.05366
 
   156    C   32  S      Cor( 1S)     1.99985     -10.99102
   157    C   32  S      Val( 2S)     1.06013      -0.18810
   158    C   32  px     Val( 2p)     0.90212       0.10861
   159    C   32  py     Val( 2p)     0.97960       0.15365
   160    C   32  pz     Val( 2p)     0.94416       0.07142
 
   161    C   33  S      Cor( 1S)     1.99990     -10.94919
   162    C   33  S      Val( 2S)     1.08034      -0.19014
   163    C   33  px     Val( 2p)     0.99353       0.11270
   164    C   33  py     Val( 2p)     0.94551       0.14660
   165    C   33  pz     Val( 2p)     1.01393       0.06804
 
   166    N   34  S      Cor( 1S)     1.99998     -15.27473
   167    N   34  S      Val( 2S)     1.40921      -0.60155
   168    N   34  px     Val( 2p)     1.54078      -0.17193
   169    N   34  py     Val( 2p)     1.06075       0.01325
   170    N   34  pz     Val( 2p)     1.26274      -0.06459
 
   171    C   35  S      Cor( 1S)     1.99996     -11.01962
   172    C   35  S      Val( 2S)     1.10387      -0.24225
   173    C   35  px     Val( 2p)     0.97705       0.06175
   174    C   35  py     Val( 2p)     0.96109       0.09860
   175    C   35  pz     Val( 2p)     0.94537       0.08716
 
   176    C   36  S      Cor( 1S)     1.99996     -11.05931
   177    C   36  S      Val( 2S)     1.11114      -0.26462
   178    C   36  px     Val( 2p)     0.92989       0.07512
   179    C   36  py     Val( 2p)     0.84081       0.11555
   180    C   36  pz     Val( 2p)     0.94640       0.07553
 
   181    C   37  S      Cor( 1S)     1.99990     -11.03451
   182    C   37  S      Val( 2S)     1.12090      -0.25791
   183    C   37  px     Val( 2p)     1.02294       0.05753
   184    C   37  py     Val( 2p)     0.91718       0.07129
   185    C   37  pz     Val( 2p)     0.87424       0.09303
 
   186    C   38  S      Cor( 1S)     1.99994     -10.98776
   187    C   38  S      Val( 2S)     1.10484      -0.22307
   188    C   38  px     Val( 2p)     0.99817       0.07478
   189    C   38  py     Val( 2p)     0.98502       0.08017
   190    C   38  pz     Val( 2p)     0.99844       0.07444
 
   191    C   39  S      Cor( 1S)     1.99995     -10.98849
   192    C   39  S      Val( 2S)     1.09368      -0.21197
   193    C   39  px     Val( 2p)     1.01311       0.07704
   194    C   39  py     Val( 2p)     0.97138       0.08067
   195    C   39  pz     Val( 2p)     0.99316       0.08020
 
   196    C   40  S      Cor( 1S)     1.99998     -11.02373
   197    C   40  S      Val( 2S)     1.10345      -0.24363
   198    C   40  px     Val( 2p)     0.94232       0.09276
   199    C   40  py     Val( 2p)     0.95474       0.09103
   200    C   40  pz     Val( 2p)     0.94455       0.08592
 
   201    N   41  S      Cor( 1S)     1.99999     -15.42306
   202    N   41  S      Val( 2S)     1.40674      -0.66367
   203    N   41  px     Val( 2p)     1.26744      -0.12942
   204    N   41  py     Val( 2p)     1.13537      -0.09227
   205    N   41  pz     Val( 2p)     1.15111      -0.10219
 
   206    C   42  S      Cor( 1S)     1.99990     -11.03516
   207    C   42  S      Val( 2S)     1.08911      -0.23215
   208    C   42  px     Val( 2p)     0.97087       0.07051
   209    C   42  py     Val( 2p)     0.87308       0.07996
   210    C   42  pz     Val( 2p)     1.02141       0.04794
 
   211    C   43  S      Cor( 1S)     1.99996     -10.99254
   212    C   43  S      Val( 2S)     1.08049      -0.20193
   213    C   43  px     Val( 2p)     1.03107       0.07234
   214    C   43  py     Val( 2p)     0.99769       0.07610
   215    C   43  pz     Val( 2p)     0.96358       0.09083
 
   216    C   44  S      Cor( 1S)     1.99995     -10.98839
   217    C   44  S      Val( 2S)     1.08538      -0.20281
   218    C   44  px     Val( 2p)     1.02452       0.07285
   219    C   44  py     Val( 2p)     0.97105       0.08933
   220    C   44  pz     Val( 2p)     0.99022       0.08402
 
   221    C   45  S      Cor( 1S)     1.99995     -10.99366
   222    C   45  S      Val( 2S)     1.08899      -0.21361
   223    C   45  px     Val( 2p)     1.00010       0.07460
   224    C   45  py     Val( 2p)     1.01581       0.06445
   225    C   45  pz     Val( 2p)     0.99002       0.06194
 
   226    C   46  S      Cor( 1S)     1.99991     -11.02907
   227    C   46  S      Val( 2S)     1.09685      -0.23447
   228    C   46  px     Val( 2p)     0.96396       0.06669
   229    C   46  py     Val( 2p)     0.96359       0.06102
   230    C   46  pz     Val( 2p)     0.93727       0.07248
 
   231    C   47  S      Cor( 1S)     1.99992     -10.99773
   232    C   47  S      Val( 2S)     1.10163      -0.22675
   233    C   47  px     Val( 2p)     0.97357       0.07229
   234    C   47  py     Val( 2p)     0.96562       0.07825
   235    C   47  pz     Val( 2p)     1.03248       0.06194
 
   236    C   48  S      Cor( 1S)     1.99994     -11.01862
[...]
  106      25.7598        0.2384      25.5214         0.4176      25.3422
  107       1.6872        3.3287      -1.6414        -0.1384       1.8256
  108      -0.2700        0.3228      -0.5928        -1.4994       1.2294
 Sum       30.5821        1.5503      29.0318        -1.5536      32.1358

 Contributions to Isotropic shielding for atom   95 (    32.2106 ppm):
                         Standard Origin              Atomic Origin
 NLMO      Total    Paramagnetic  Diamagnetic   Paramagnetic  Diamagnetic
  102       0.6665        2.8814      -2.2149        -0.2732       0.9397
  104       0.0059        0.4307      -0.4248        -1.0104       1.0162
  105       0.9607        1.6957      -0.7350        -0.1004       1.0612
  106       2.2454        2.6571      -0.4116         0.4060       1.8394
  107      26.3735       -0.5324      26.9059         0.5975      25.7760
  109      -0.1273        0.9680      -1.0952        -1.2843       1.1570
 Sum       30.1247        8.1004      22.0243        -1.6648      31.7895

 Contributions to Isotropic shielding for atom   96 (    32.0535 ppm):
                         Standard Origin              Atomic Origin
 NLMO      Total    Paramagnetic  Diamagnetic   Paramagnetic  Diamagnetic
   95      -0.1681        0.1348      -0.3029        -1.0230       0.8549
   97       2.0405       -1.6595       3.7001         1.1660       0.8746
  102       0.3405       -0.7836       1.1241         0.1771       0.1634
  105       1.2946        0.0174       1.2771         0.2318       1.0628
  106      -0.1325       -2.0775       1.9450        -1.3527       1.2202
  108      25.8652        0.5654      25.2998         0.2360      25.6292
  109       1.8250        1.3710       0.4540        -0.0157       1.8407
 Sum       31.0651       -2.4320      33.4972        -0.5805      31.6457

 Contributions to Isotropic shielding for atom   97 (    32.3367 ppm):
                         Standard Origin              Atomic Origin
 NLMO      Total    Paramagnetic  Diamagnetic   Paramagnetic  Diamagnetic
   97       1.0960        0.9521       0.1439         0.2807       0.8153
   98      -0.2497        0.9931      -1.2429        -1.2466       0.9969
  105       0.5127        3.2160      -2.7032        -0.4807       0.9934
  107      -0.0707       -1.0290       0.9583        -1.2541       1.1835
  108       2.4235        0.6145       1.8090         0.6343       1.7892
  109      26.3346       -0.3272      26.6618         0.5123      25.8223
  117      -0.0390       -1.4814       1.4424        -0.8852       0.8462
 Sum       30.0074        2.9381      27.0693        -2.4392      32.4467

 Contributions to Isotropic shielding for atom   98 (    32.8680 ppm):
                         Standard Origin              Atomic Origin
 NLMO      Total    Paramagnetic  Diamagnetic   Paramagnetic  Diamagnetic
   71      -0.7253        0.2491      -0.9745        -1.6515       0.9262
   80      -0.0203        1.1218      -1.1420        -0.9501       0.9298
   85       1.5736       -1.0444       2.6180         0.8901       0.6834
   89      -0.1305        0.2529      -0.3834        -1.0683       0.9378
  110       1.0201        1.0797      -0.0596         0.3269       0.6932
  111      25.9421        0.1154      25.8267         0.5765      25.3656
  112       1.7648        3.3586      -1.5938        -0.0016       1.7664
  114       0.1116        0.0209       0.0908        -0.9050       1.0166
  121       0.0535       -1.1850       1.2385        -0.8104       0.8639
  125       0.0246       -1.0886       1.1132        -0.3165       0.3411
 Sum       29.6143        2.8804      26.7339        -3.9099      33.5242

 Contributions to Isotropic shielding for atom   99 (    32.5929 ppm):
                         Standard Origin              Atomic Origin
 NLMO      Total    Paramagnetic  Diamagnetic   Paramagnetic  Diamagnetic
   83      -0.3546        1.1411      -1.4957        -0.8019       0.4473
   85       1.2390       -0.6947       1.9337         0.5116       0.7274
   87      -0.1637       -0.4697       0.3060        -1.0323       0.8685
   89      -0.3666        0.5068      -0.8734        -1.2683       0.9016
  104      -0.1472       -1.6223       1.4751        -0.3441       0.1968
  110       0.8789        1.4836      -0.6047         0.0474       0.8316
  111       1.7741        3.2272      -1.4532        -0.1398       1.9139
  112      26.1684       -0.2993      26.4678         0.5404      25.6280
  115      -0.0536       -0.2881       0.2345        -1.0095       0.9558
  116      -0.2632       -1.1687       0.9055        -0.7898       0.5266
  118       0.5361       -0.8098       1.3459        -0.4476       0.9837
  120       1.2864       -1.1963       2.4827         0.4674       0.8191
  121       0.1072       -3.7856       3.8929        -1.1358       1.2430
  125       0.0583       -1.2133       1.2716        -0.4839       0.5422
  191      -0.8594        1.7261      -2.5855         0.1122      -0.9716
 Sum       29.8401       -3.4630      33.3031        -5.7739      35.6140

 Contributions to Isotropic shielding for atom  100 (    31.1856 ppm):
                         Standard Origin              Atomic Origin
 NLMO      Total    Paramagnetic  Diamagnetic   Paramagnetic  Diamagnetic
   71      -0.1336       -0.0197      -0.1138        -1.0098       0.8763
   99      -0.6089        0.9051      -1.5140        -1.8894       1.2805
  110      -0.1521        1.5387      -1.6908        -1.0323       0.8801
  112       0.0541       -0.1405       0.1946        -1.0251       1.0792
  113      26.3543        0.0892      26.2651         1.0822      25.2721
  114       1.7525        0.8549       0.8976        -0.1235       1.8760
 Sum       27.2664        3.2277      24.0387        -3.9978      31.2642

 Contributions to Isotropic shielding for atom  101 (    30.3560 ppm):
                         Standard Origin              Atomic Origin
 NLMO      Total    Paramagnetic  Diamagnetic   Paramagnetic  Diamagnetic
   71      -0.3113       -0.1104      -0.2008        -1.5395       1.2282
   85       0.3809       -0.8129       1.1938        -0.3669       0.7478
  100       2.2977       -1.7306       4.0283         1.3441       0.9536
  101      -0.0708       -0.0229      -0.0479        -1.0517       0.9808
  110       0.6269       -0.8368       1.4637        -0.2383       0.8652
  113       0.9929        1.4603      -0.4674        -0.8870       1.8800
  114      25.5554        0.7902      24.7652         0.7398      24.8156
  195       0.2608       -0.0405       0.3013         1.0747      -0.8139
 Sum       29.7326       -1.3036      31.0362        -0.9248      30.6574

 Contributions to Isotropic shielding for atom  102 (    31.5755 ppm):
                         Standard Origin              Atomic Origin
 NLMO      Total    Paramagnetic  Diamagnetic   Paramagnetic  Diamagnetic
   87       0.3340       -0.9545       1.2885         0.0191       0.3149
   89      -0.4040        0.5960      -1.0001        -1.0227       0.6186
   97      -0.2063        1.1544      -1.3607        -0.8439       0.6376
   98       1.7953       -1.0381       2.8334         0.8339       0.9613
  104      -0.4472       -1.9753       1.5282        -0.5542       0.1071
  112      -0.2709       -1.4649       1.1939        -0.3235       0.0525
  115       0.4591        2.1447      -1.6856        -0.4389       0.8980
  116      26.2943       -0.1534      26.4477         0.6237      25.6706
  117       1.5561        3.3791      -1.8230        -0.3481       1.9041
  118      -0.0326        0.1175      -0.1501        -1.0937       1.0611
  120       0.4969       -1.6837       2.1806        -0.3789       0.8758
  121       0.6146       -2.6136       3.2282        -1.0945       1.7091
  191      -0.7574        1.1555      -1.9129         0.1309      -0.8882
 Sum       29.4318       -1.3362      30.7680        -4.4907      33.9226

 Contributions to Isotropic shielding for atom  103 (    32.1321 ppm):
                         Standard Origin              Atomic Origin
 NLMO      Total    Paramagnetic  Diamagnetic   Paramagnetic  Diamagnetic
   87       0.3951       -0.8751       1.2701         0.2187       0.1764
   94      -0.1508        1.2707      -1.4215        -0.9915       0.8407
   97      -0.2324        1.4094      -1.6418        -1.0119       0.7795
   98       1.9029       -0.5587       2.4615         0.8848       1.0180
  115       0.4645        2.5256      -2.0611        -0.6077       1.0722
  116       1.6338        3.0903      -1.4566        -0.2660       1.8998
  117      26.4296       -0.3082      26.7378         0.6321      25.7975
  119      -0.1494       -0.5723       0.4228        -1.2900       1.1406
  121       0.2364       -0.9391       1.1755        -0.8339       1.0703
 Sum       30.5295        5.0427      25.4868        -3.2654      33.7949

 Contributions to Isotropic shielding for atom  104 (    31.2691 ppm):
                         Standard Origin              Atomic Origin
 NLMO      Total    Paramagnetic  Diamagnetic   Paramagnetic  Diamagnetic
   81      -0.4514        1.1803      -1.6317        -1.0849       0.6335
   86      -0.3953        1.4731      -1.8684        -1.5441       1.1488
   87       2.1503       -0.7879       2.9382         1.2067       0.9437
   91      -0.1050        0.9332      -1.0382        -0.8781       0.7731
   98       0.3037       -0.8548       1.1585         0.0420       0.2617
  115       1.3851        0.9993       0.3858         0.2003       1.1848
  117      -0.2047       -0.0544      -0.1503        -1.3581       1.1535
  118       0.0107        4.6654      -4.6547        -0.9404       0.9511
  119      25.9319       -0.5352      26.4671         0.4203      25.5116
  122       1.0414       -2.2960       3.3374        -0.6061       1.6475
  125       0.1512       -0.9037       1.0550        -0.2927       0.4439
  126       0.1624       -0.8762       1.0386        -0.4780       0.6404
  127      -0.2207       -1.8934       1.6727        -0.6371       0.4164
  193      -0.8373        0.4567      -1.2939         0.1367      -0.9740
  194      -0.2352       -1.0594       0.8242        -0.7847       0.5495
 Sum       28.6872        0.4470      28.2402        -6.5982      35.2854

 Contributions to Isotropic shielding for atom  105 (    30.5236 ppm):
                         Standard Origin              Atomic Origin
 NLMO      Total    Paramagnetic  Diamagnetic   Paramagnetic  Diamagnetic
  120      -0.6772        0.3468      -1.0239        -1.3048       0.6277
  121      -0.1436        1.1000      -1.2436        -1.1716       1.0281
  122      -0.6439        0.4982      -1.1420        -0.6782       0.0343
  123       1.2325        0.1289       1.1036        -0.8430       2.0755
  124      25.9950        0.3747      25.6203         0.8186      25.1764
  125       1.1848        1.4401      -0.2553        -0.8111       1.9959
  126       0.5193        3.8610      -3.3417        -1.4664       1.9857
  191       0.2608       -0.7791       1.0399         0.6439      -0.3831
  193       1.0827       -0.9086       1.9913         1.5527      -0.4700
  194       1.0602        0.5203       0.5399         0.8045       0.2557
 Sum       29.8707        6.5822      23.2884        -2.4554      32.3261

 Contributions to Isotropic shielding for atom  106 (    30.6341 ppm):
                         Standard Origin              Atomic Origin
 NLMO      Total    Paramagnetic  Diamagnetic   Paramagnetic  Diamagnetic
  120      -1.0273        0.7204      -1.7477        -1.9266       0.8993
  121      -0.4183        1.4765      -1.8948        -1.9526       1.5343
  122      -1.5934        1.6437      -3.2372        -2.4401       0.8466
  123       2.7865       -4.7355       7.5220         1.3712       1.4153
  124       1.4552        2.0736      -0.6184        -0.5895       2.0447
  125      26.2120        0.9853      25.2267         1.0533      25.1587
  126       1.0104        2.0988      -1.0884        -0.8645       1.8750
  191       0.3732       -1.1571       1.5303         1.1448      -0.7716
  193       0.9907       -0.1945       1.1852         1.0381      -0.0474
 Sum       29.7888        2.9112      26.8777        -3.1659      32.9547

 Contributions to Isotropic shielding for atom  107 (    30.5753 ppm):
                         Standard Origin              Atomic Origin
 NLMO      Total    Paramagnetic  Diamagnetic   Paramagnetic  Diamagnetic
  120      -1.3210        0.9353      -2.2563        -2.2251       0.9041
  121      -0.6127        2.2300      -2.8427        -2.1562       1.5435
  122      -2.1497        1.6427      -3.7924        -2.9311       0.7813
  123       1.4477       -0.1738       1.6215        -0.0164       1.4641
  124       1.1764        4.5043      -3.3279        -0.8658       2.0422
  125       1.2734        1.5800      -0.3066        -0.5988       1.8722
  126      26.5309        0.6671      25.8638         1.3056      25.2253
  191       0.6231       -1.7091       2.3322         1.4021      -0.7789
  192       0.8687        1.0094      -0.1407         1.0895      -0.2208
  193       1.5897       -1.3200       2.9097         1.6501      -0.0604
  194       0.5100        1.1868      -0.6768         0.0366       0.4734
 Sum       29.9365       10.5526      19.3839        -3.3096      33.2461

 Contributions to Isotropic shielding for atom  108 (    30.9678 ppm):
                         Standard Origin              Atomic Origin
 NLMO      Total    Paramagnetic  Diamagnetic   Paramagnetic  Diamagnetic
   76      -0.4506       -0.0533      -0.3973        -1.3085       0.8579
   81      -0.4278        0.8063      -1.2341        -1.1906       0.7627
   82       1.1493        0.0192       1.1301        -0.0329       1.1822
   87      -0.2069        0.8862      -1.0930        -1.0815       0.8746
  118      -0.3028        0.3715      -0.6743        -1.0673       0.7645
  122       1.1555       -1.1283       2.2838         0.6079       0.5476
  124       0.0733       -1.3888       1.4621        -0.6606       0.7340
  127      25.9824        0.2238      25.7586         0.6611      25.3214
  128       1.4745        3.7625      -2.2880        -0.5069       1.9814
  129       1.7861        0.4096       1.3765        -0.0525       1.8386
  193      -1.0777        0.6047      -1.6825         0.2600      -1.3377
 Sum       29.1553        4.5134      24.6419        -4.3719      33.5272

 Contributions to Isotropic shielding for atom  109 (    30.7838 ppm):
                         Standard Origin              Atomic Origin
 NLMO      Total    Paramagnetic  Diamagnetic   Paramagnetic  Diamagnetic
   75      -0.5426        0.6006      -1.1432        -1.2565       0.7139
   76      -0.8274        0.1850      -1.0125        -2.1808       1.3534
   79      -0.4152        0.6147      -1.0299        -1.0484       0.6332
   82       1.1130        0.7225       0.3905        -0.1493       1.2622
  122       0.6906       -0.5215       1.2121         0.4226       0.2680
  124       0.0082       -1.3214       1.3296        -0.6161       0.6243
  127       1.5333        3.7171      -2.1838        -0.4366       1.9699
  128      26.0634        0.1237      25.9397         0.7169      25.3465
  129       1.7510        0.8591       0.8919        -0.0440       1.7950
 Sum       29.3742        4.9798      24.3943        -4.5922      33.9664

 Contributions to Isotropic shielding for atom  110 (    32.0305 ppm):
                         Standard Origin              Atomic Origin
 NLMO      Total    Paramagnetic  Diamagnetic   Paramagnetic  Diamagnetic
   76      -0.6675       -0.2100      -0.4575        -1.8833       1.2157
   79      -0.3536        0.4571      -0.8107        -1.0371       0.6835
   82       2.0272       -3.1073       5.1346         1.2657       0.7615
   86      -0.1804        0.4805      -0.6608        -1.2078       1.0275
  122       0.5481       -0.6006       1.1487        -0.0065       0.5546
  127       1.8209        1.1470       0.6739        -0.1022       1.9231
  128       1.8102        1.8592      -0.0490        -0.0843       1.8944
  129      26.3600        0.8318      25.5282         0.6834      25.6765
 Sum       31.3648        0.8576      30.5072        -2.3721      33.7369
 
 1\1\GINC-PCSN02\SP\RHF\STO-3G\C45H56N4O5\ABENIDD\30-May-2024\0\\# nmr=
 giao hf/sto-3g pop=nbo geom=connectivity\\pleiokomenine_C_1a\\0,1\C,0,
 0.,0.,0.\C,0,1.4024,0.,0.\C,0,2.0942,1.23,0.\C,0,1.4083,2.4531,-0.0102
 \C,0,0.0248,2.4443,-0.01\C,0,-0.663,1.2157,0.0203\N,0,-0.8653,3.5559,-
 0.0353\C,0,-2.1329,1.5057,0.193\C,0,-2.1363,2.9236,-0.482\C,0,-3.2092,
 0.6403,-0.461\C,0,-2.078,2.746,-2.0678\C,0,-3.2511,1.9141,-2.5903\C,0,
 -4.1163,1.4536,-1.4113\N,0,-4.0603,0.2259,0.656\C,0,-4.9766,-0.8287,0.
 2801\C,0,-5.9615,-0.2193,-0.7333\C,0,-5.2677,0.5339,-1.8853\C,0,-2.397
 1,1.3279,1.7137\C,0,-3.1909,0.0211,1.7906\C,0,-4.6361,2.7504,-0.6952\C
 ,0,-3.4604,3.6832,-0.2513\C,0,-3.6837,4.2846,1.1269\O,0,-4.5997,3.9966
 ,1.8871\O,0,-2.7812,5.276,1.3736\C,0,-2.9093,5.8787,2.6604\C,0,-0.3719
 ,4.7747,-0.6557\C,0,2.1592,-1.3094,0.0829\C,0,2.1907,-1.8759,1.4867\C,
 0,1.0804,-2.5724,1.9815\C,0,3.299,-1.6586,2.3292\C,0,3.2968,-2.0986,3.
 6604\C,0,2.1709,-2.7346,4.1565\C,0,1.0865,-2.9917,3.3021\N,0,1.9135,-3
 .1537,5.4921\C,0,0.0259,-3.7309,4.0754\C,0,0.4319,-3.2398,5.5186\C,0,-
 1.4446,-3.403,3.8281\C,0,-0.1842,-1.7922,5.7533\C,0,-1.7198,-1.8319,5.
 7064\C,0,-2.1781,-3.2155,5.1867\N,0,-2.0124,-4.4756,2.8906\C,0,-3.1022
 ,-5.2952,3.5369\C,0,-4.192,-4.4496,4.1786\C,0,-3.6921,-3.2357,4.9628\C
 ,0,0.125,-5.2177,3.7153\C,0,-0.8312,-5.3583,2.545\C,0,-1.7232,-4.2331,
 6.2925\C,0,-0.2057,-4.0954,6.6286\C,0,0.4536,-5.4314,6.9374\O,0,-0.040
 5,-6.5268,6.7004\O,0,1.6307,-5.2514,7.5965\C,0,2.3228,-6.4609,7.9071\C
 ,0,2.6406,-2.4453,6.5377\O,0,-2.5044,-3.8957,1.7466\H,0,-0.561,-0.9291
 ,0.0353\H,0,3.1817,1.2405,0.0223\H,0,1.9658,3.3822,-0.0036\H,0,-2.7627
 ,-0.2244,-0.9711\H,0,-2.0925,3.729,-2.5573\H,0,-1.1421,2.2802,-2.4007\
 H,0,-3.8436,2.5069,-3.2983\H,0,-2.8667,1.0541,-3.1529\H,0,-4.4549,-1.6
 913,-0.1512\H,0,-5.5416,-1.1827,1.1498\H,0,-6.6007,-1.0088,-1.1449\H,0
 ,-6.6278,0.4782,-0.209\H,0,-4.864,-0.217,-2.5776\H,0,-6.0115,1.1085,-2
 .45\H,0,-1.4954,1.2628,2.3344\H,0,-3.0016,2.1335,2.128\H,0,-2.5446,-0.
 855,1.6716\H,0,-3.7377,-0.0569,2.7348\H,0,-5.28,3.3104,-1.3871\H,0,-5.
 2815,2.4875,0.1493\H,0,-3.4933,4.5565,-0.9208\H,0,-3.8671,6.4016,2.743
 3\H,0,-2.8061,5.1281,3.4505\H,0,-2.1045,6.6104,2.7731\H,0,0.0494,4.59,
 -1.6503\H,0,0.3987,5.2372,-0.0298\H,0,-1.1772,5.5077,-0.7644\H,0,1.702
 3,-2.0394,-0.5986\H,0,3.1831,-1.1759,-0.2894\H,0,0.2144,-2.753,1.3497\
 H,0,4.1669,-1.1194,1.9559\H,0,4.1587,-1.9035,4.2881\H,0,-1.5371,-2.474
 6,3.2471\H,0,0.1307,-1.3874,6.7236\H,0,0.176,-1.0725,5.0075\H,0,-2.085
 5,-1.0211,5.0637\H,0,-2.1305,-1.6401,6.7058\H,0,-3.5244,-5.9207,2.7405
 \H,0,-2.6286,-5.9667,4.2554\H,0,-4.883,-4.0988,3.4015\H,0,-4.789,-5.09
 1,4.838\H,0,-3.9825,-2.3365,4.4021\H,0,-4.2268,-3.1686,5.9184\H,0,1.13
 33,-5.5576,3.4557\H,0,-0.2451,-5.8676,4.5021\H,0,-1.1837,-6.3817,2.385
 \H,0,-0.4044,-4.9808,1.6107\H,0,-1.9784,-5.2571,6.0213\H,0,-2.2921,-4.
 0411,7.2133\H,0,-0.1497,-3.5494,7.5832\H,0,3.2711,-6.1956,8.3825\H,0,2
 .5394,-7.0258,6.9949\H,0,1.7393,-7.0644,8.6091\H,0,2.2542,-2.7087,7.52
 69\H,0,3.6993,-2.7257,6.5225\H,0,2.5633,-1.3574,6.4298\\Version=ES64L-
 G16RevB.01\State=1-A\HF=-2300.2158461\RMSD=3.607e-09\Dipole=0.8691879,
 -0.1771621,1.3376488\Quadrupole=-8.6568221,1.1440094,7.5128127,0.28899
 04,2.7185484,-10.7983585\PG=C01 [X(C45H56N4O5)]\\@


 DEPRESSION IS WAITING FOR YOUR SHIP TO COME IN,
 AND FINDING OUT IT'S THE TITANIC.
 Job cpu time:       0 days  0 hours 11 minutes 45.8 seconds.
 Elapsed time:       0 days  0 hours  1 minutes 57.9 seconds.
 File lengths (MBytes):  RWF=     67 Int=      0 D2E=      0 Chk=     10 Scr=      1
 Normal termination of Gaussian 16 at Thu May 30 08:57:07 2024.
