 Entering Gaussian System, Link 0=g16
 Input=1_pleiokomenine_1a_c_2.gjf
 Output=1_pleiokomenine_1a_c_2.log
 Initial command:
 /opt/gaussian/g16/l1.exe "/data/abenidd/Elvis/pleiokomenine_C/NMR_HF/1a/1_pleiokomenine_1a_c_2/Gau-25100.inp" -scrdir="/data/abenidd/Elvis/pleiokomenine_C/NMR_HF/1a/1_pleiokomenine_1a_c_2/"
 Entering Link 1 = /opt/gaussian/g16/l1.exe PID=     25102.
  
 Copyright (c) 1988-2017, Gaussian, Inc.  All Rights Reserved.
  
 This is part of the Gaussian(R) 16 program.  It is based on
 the Gaussian(R) 09 system (copyright 2009, Gaussian, Inc.),
 the Gaussian(R) 03 system (copyright 2003, Gaussian, Inc.),
 the Gaussian(R) 98 system (copyright 1998, Gaussian, Inc.),
 the Gaussian(R) 94 system (copyright 1995, Gaussian, Inc.),
 the Gaussian 92(TM) system (copyright 1992, Gaussian, Inc.),
 the Gaussian 90(TM) system (copyright 1990, Gaussian, Inc.),
 the Gaussian 88(TM) system (copyright 1988, Gaussian, Inc.),
 the Gaussian 86(TM) system (copyright 1986, Carnegie Mellon
 University), and the Gaussian 82(TM) system (copyright 1983,
 Carnegie Mellon University). Gaussian is a federally registered
 trademark of Gaussian, Inc.
  
 This software contains proprietary and confidential information,
 including trade secrets, belonging to Gaussian, Inc.
  
 This software is provided under written license and may be
 used, copied, transmitted, or stored only in accord with that
 written license.
  
 The following legend is applicable only to US Government
 contracts under FAR:
  
                    RESTRICTED RIGHTS LEGEND
  
 Use, reproduction and disclosure by the US Government is
 subject to restrictions as set forth in subparagraphs (a)
 and (c) of the Commercial Computer Software - Restricted
 Rights clause in FAR 52.227-19.
  
 Gaussian, Inc.
 340 Quinnipiac St., Bldg. 40, Wallingford CT 06492
  
  
 ---------------------------------------------------------------
 Warning -- This program may not be used in any manner that
 competes with the business of Gaussian, Inc. or will provide
 assistance to any competitor of Gaussian, Inc.  The licensee
 of this program is prohibited from giving any competitor of
 Gaussian, Inc. access to this program.  By using this program,
 the user acknowledges that Gaussian, Inc. is engaged in the
 business of creating and licensing software in the field of
 computational chemistry and represents and warrants to the
 licensee that it is not a competitor of Gaussian, Inc. and that
 it will not use this program in any manner prohibited above.
 ---------------------------------------------------------------
  

 Cite this work as:
 Gaussian 16, Revision B.01,
 M. J. Frisch, G. W. Trucks, H. B. Schlegel, G. E. Scuseria, 
 M. A. Robb, J. R. Cheeseman, G. Scalmani, V. Barone, 
 G. A. Petersson, H. Nakatsuji, X. Li, M. Caricato, A. V. Marenich, 
 J. Bloino, B. G. Janesko, R. Gomperts, B. Mennucci, H. P. Hratchian, 
 J. V. Ortiz, A. F. Izmaylov, J. L. Sonnenberg, D. Williams-Young, 
 F. Ding, F. Lipparini, F. Egidi, J. Goings, B. Peng, A. Petrone, 
 T. Henderson, D. Ranasinghe, V. G. Zakrzewski, J. Gao, N. Rega, 
 G. Zheng, W. Liang, M. Hada, M. Ehara, K. Toyota, R. Fukuda, 
 J. Hasegawa, M. Ishida, T. Nakajima, Y. Honda, O. Kitao, H. Nakai, 
 T. Vreven, K. Throssell, J. A. Montgomery, Jr., J. E. Peralta, 
 F. Ogliaro, M. J. Bearpark, J. J. Heyd, E. N. Brothers, K. N. Kudin, 
 V. N. Staroverov, T. A. Keith, R. Kobayashi, J. Normand, 
 K. Raghavachari, A. P. Rendell, J. C. Burant, S. S. Iyengar, 
 J. Tomasi, M. Cossi, J. M. Millam, M. Klene, C. Adamo, R. Cammi, 
 J. W. Ochterski, R. L. Martin, K. Morokuma, O. Farkas, 
 J. B. Foresman, and D. J. Fox, Gaussian, Inc., Wallingford CT, 2016.
 
 ******************************************
 Gaussian 16:  ES64L-G16RevB.01 20-Dec-2017
                30-May-2024 
 ******************************************
 %nprocshared=8
 Will use up to    8 processors via shared memory.
 ----------------------------------------------
 # nmr=giao hf/sto-3g pop=nbo geom=connectivity
 ----------------------------------------------
 1/38=1,57=2,172=1/1;
 2/12=2,17=6,18=5,40=1/2;
 3/6=3,11=9,25=1,30=1/1,2,3,8;
 4//1;
 5/5=2,38=5/2;
 8/6=1,10=90,11=11/1;
 10/13=100,45=16/2;
 6/7=2,8=2,9=2,10=2,28=1,40=1,64=1/1,7;
 99/9=1/99;
 ------------------
 pleiokomenine_C_1a
 ------------------
 Symbolic Z-matrix:
 Charge =  0 Multiplicity = 1
 C                     0.        0.        0. 
 C                     1.4022    0.        0. 
 C                     2.0954    1.2291    0. 
 C                     1.4105    2.4526   -0.0071 
 C                     0.0269    2.4444   -0.0011 
 C                    -0.6621    1.216     0.026 
 N                    -0.8623    3.5575   -0.0111 
 C                    -2.1297    1.5063    0.214 
 C                    -2.1376    2.9296   -0.4499 
 C                    -3.2136    0.6472   -0.4363 
 C                    -2.0961    2.7639   -2.0372 
 C                    -3.278     1.9406   -2.5537 
 C                    -4.1304    1.4708   -1.3689 
 N                    -4.0524    0.2205    0.6862 
 C                    -4.9782   -0.8243    0.31 
 C                    -5.9727   -0.2016   -0.6853 
 C                    -5.289     0.5584   -1.8385 
 C                    -2.3788    1.3153    1.7356 
 C                    -3.1692    0.0063    1.8088 
 C                    -4.6398    2.7617   -0.6348 
 C                    -3.4577    3.6896   -0.1993 
 C                    -3.6629    4.2825    1.1854 
 O                    -4.5615    3.9807    1.961 
 O                    -2.7665    5.2825    1.4198 
 C                    -2.8773    5.879     2.7111 
 C                    -0.3715    4.7785   -0.6295 
 C                     2.1566   -1.31      0.1022 
 C                     2.3117   -1.7832    1.5319 
 C                     1.2004   -2.2837    2.2231 
 C                     3.5516   -1.6992    2.1949 
 C                     3.6847   -2.0858    3.5363 
 C                     2.5664   -2.5277    4.2243 
 C                     1.3371   -2.6348    3.5556 
 N                     2.461    -2.8828    5.5961 
 C                     0.3017   -3.1909    4.5003 
 C                     1.0054   -2.7383    5.8443 
 C                    -1.139    -2.6485    4.4847 
 C                     0.6679   -1.2034    6.1067 
 C                    -0.8414   -0.9858    6.2815 
 C                    -1.5778   -2.2995    5.9471 
 N                    -1.9645   -3.7139    3.7833 
 C                    -3.4418   -3.6244    4.0642 
 C                    -3.8214   -3.3496    5.506 
 C                    -3.0964   -2.115     6.0273 
 C                     0.1623   -4.6995    4.1736 
 C                    -1.3296   -5.0082    4.1845 
 C                    -1.098    -3.3207    7.0354 
 C                     0.4448   -3.4638    7.0768 
 C                     0.8769   -4.9045    7.2833 
 O                     0.1585   -5.8794    7.0965 
 O                     2.1455   -4.966     7.772 
 C                     2.6403   -6.2925    7.9544 
 C                     3.4438   -2.2981    6.4966 
 O                    -1.8307   -3.5681    2.4083 
 H                    -0.5578   -0.9313    0.0418 
 H                     3.1828    1.2368    0.026 
 H                     1.969     3.381     0.0031 
 H                    -2.773    -0.2124   -0.9599 
 H                    -1.1655    2.2967   -2.3828 
 H                    -2.1117    3.7504   -2.5194 
 H                    -3.8772    2.5422   -3.2483 
 H                    -2.9029    1.0852   -3.1295 
 H                    -4.4657   -1.6849   -0.1361 
 H                    -5.5343   -1.1849    1.1828 
 H                    -6.6295    0.494    -0.1469 
 H                    -6.6202   -0.9846   -1.0964 
 H                    -4.8948   -0.188    -2.5411 
 H                    -6.0371    1.1397   -2.3907 
 H                    -2.9809    2.116     2.1625 
 H                    -1.4713    1.2468    2.3476 
 H                    -2.5234   -0.8678    1.6748 
 H                    -3.7052   -0.081     2.7585 
 H                    -5.2927    3.3279   -1.3132 
 H                    -5.2736    2.492     0.2162 
 H                    -3.4974    4.567    -0.8632 
 H                    -2.7514    5.1265    3.4961 
 H                    -2.0785    6.6189    2.8118 
 H                    -3.839     6.3911    2.8137 
 H                     0.0417    4.598    -1.6283 
 H                     0.4047    5.2367   -0.0073 
 H                    -1.1763    5.5133   -0.7283 
 H                     3.1409   -1.2048   -0.3722 
 H                     1.6394   -2.0827   -0.4818 
 H                     0.2396   -2.3946    1.7287 
 H                     4.4248   -1.3208    1.6684 
 H                     4.6517   -2.0098    4.0197 
 H                    -1.2449   -1.7598    3.847 
 H                     1.1838   -0.8436    7.0062 
 H                     1.0265   -0.5628    5.2914 
 H                    -1.0569   -0.6695    7.31 
 H                    -1.1738   -0.1659    5.6324 
 H                    -3.81     -2.8076    3.4299 
 H                    -3.8809   -4.5609    3.7024 
 H                    -4.9035   -3.1836    5.5656 
 H                    -3.6121   -4.2227    6.1311 
 H                    -3.4009   -1.2422    5.435 
 H                    -3.4081   -1.9144    7.0594 
 H                     0.5238   -4.9162    3.1581 
 H                     0.7412   -5.3627    4.8141 
 H                    -1.615    -5.77      3.4517 
 H                    -1.7085   -5.2918    5.1641 
 H                    -1.5937   -4.2843    6.9227 
 H                    -1.4266   -2.9667    8.0236 
 H                     0.7819   -2.947     7.9884 
 H                     2.0585   -6.8144    8.7204 
 H                     3.6775   -6.2233    8.2937 
 H                     2.6218   -6.8441    7.0091 
 H                     3.1869   -2.5071    7.5395 
 H                     4.4324   -2.7347    6.3183 
 H                     3.5141   -1.2106    6.3809 
 
 Stoichiometry    C45H56N4O5
 Framework group  C1[X(C45H56N4O5)]
 Deg. of freedom   324
 Full point group                 C1      NOp   1
 Largest Abelian subgroup         C1      NOp   1
 Largest concise Abelian subgroup C1      NOp   1
                         Standard orientation:                         
 ---------------------------------------------------------------------
 Center     Atomic      Atomic             Coordinates (Angstroms)
 Number     Number       Type             X           Y           Z
 ---------------------------------------------------------------------
      1          6           0       -1.697950    1.709245   -1.546838
      2          6           0       -1.164314    3.004457   -1.608674
      3          6           0       -1.725669    4.024276   -0.811139
      4          6           0       -2.812245    3.771025    0.038160
      5          6           0       -3.329481    2.489101    0.098077
      6          6           0       -2.749763    1.467232   -0.679182
      7          7           0       -4.421534    2.013708    0.879864
      8          6           0       -3.383623    0.158607   -0.280196
      9          6           0       -4.764388    0.741357    0.189379
     10          6           0       -3.632923   -0.960366   -1.290903
     11          6           0       -5.646807    1.088531   -1.094952
     12          6           0       -5.872346   -0.140257   -1.978522
     13          6           0       -5.127856   -1.341395   -1.383499
     14          7           0       -2.951813   -2.121504   -0.713397
     15          6           0       -2.841957   -3.213946   -1.654005
     16          6           0       -4.271459   -3.714557   -1.924780
     17          6           0       -5.254883   -2.586809   -2.293532
     18          6           0       -2.382519   -0.475565    0.724501
     19          6           0       -1.757961   -1.626440   -0.068585
     20          6           0       -5.721519   -1.579831    0.050212
     21          6           0       -5.617640   -0.300190    0.944497
     22          6           0       -5.213170   -0.620717    2.374427
     23          8           0       -4.859285   -1.719848    2.782833
     24          8           0       -5.394317    0.462896    3.181549
     25          6           0       -5.015737    0.251861    4.540845
     26          6           0       -5.447756    2.984323    1.224709
     27          6           0        0.067264    3.273628   -2.449167
     28          6           0        1.353207    2.946524   -1.720217
     29          6           0        1.705869    1.608710   -1.498562
     30          6           0        2.190323    3.967386   -1.229243
     31          6           0        3.353599    3.666726   -0.506110
     32          6           0        3.662220    2.341267   -0.247025
     33          6           0        2.841022    1.324356   -0.758234
     34          7           0        4.732916    1.823137    0.530274
     35          6           0        3.421112   -0.018010   -0.390394
     36          6           0        4.239791    0.466925    0.874904
     37          6           0        2.498758   -1.177769    0.027074
     38          6           0        3.247755    0.569595    2.117483
     39          6           0        2.638438   -0.797002    2.459590
     40          6           0        3.027486   -1.807004    1.360293
     41          7           0        2.453802   -2.110168   -1.171717
     42          6           0        2.010139   -3.510824   -0.839064
     43          6           0        2.598110   -4.103614    0.426356
     44          6           0        2.376689   -3.170956    1.610728
     45          6           0        4.173105   -0.538489   -1.641652
     46          6           0        3.819512   -2.014346   -1.775807
     47          6           0        4.587789   -1.925958    1.453878
     48          6           0        5.297333   -0.554449    1.319967
     49          6           0        6.560330   -0.646999    0.482564
     50          8           0        6.822639   -1.569238   -0.280385
     51          8           0        7.395203    0.394979    0.745670
     52          6           0        8.590066    0.401073   -0.035332
     53          6           0        5.287078    2.707252    1.545122
     54          8           0        1.532395   -1.629705   -2.093644
     55          1           0       -1.258412    0.896967   -2.118869
     56          1           0       -1.300472    5.025187   -0.834726
     57          1           0       -3.216499    4.571260    0.646563
     58          1           0       -3.221131   -0.700050   -2.275718
     59          1           0       -5.198777    1.882251   -1.705696
     60          1           0       -6.621699    1.488088   -0.785302
     61          1           0       -6.946010   -0.350445   -2.059137
     62          1           0       -5.521499    0.072693   -2.996123
     63          1           0       -2.352844   -2.905101   -2.585497
     64          1           0       -2.256436   -4.036911   -1.228620
     65          1           0       -4.646015   -4.228573   -1.030009
     66          1           0       -4.253647   -4.461182   -2.727017
     67          1           0       -5.050585   -2.293802   -3.332070
     68          1           0       -6.281025   -2.973100   -2.276217
     69          1           0       -2.877727   -0.881314    1.605424
     70          1           0       -1.601957    0.202739    1.089767
     71          1           0       -1.010572   -1.269419   -0.784833
     72          1           0       -1.299367   -2.363893    0.596774
     73          1           0       -6.781551   -1.854226   -0.039936
     74          1           0       -5.240458   -2.441557    0.524186
     75          1           0       -6.644012    0.084628    1.047674
     76          1           0       -3.963398   -0.042235    4.607346
     77          1           0       -5.144434    1.195333    5.078406
     78          1           0       -5.660285   -0.501609    5.003964
     79          1           0       -5.804519    3.536793    0.348118
     80          1           0       -5.064280    3.701661    1.958152
     81          1           0       -6.310186    2.490222    1.682392
     82          1           0        0.069534    4.322903   -2.771634
     83          1           0        0.017792    2.689756   -3.377748
     84          1           0        1.100253    0.799108   -1.895600
     85          1           0        1.933763    5.010211   -1.401173
     86          1           0        3.978010    4.473774   -0.140972
     87          1           0        1.456268   -0.856553    0.160110
     88          1           0        3.774581    0.953218    3.000657
     89          1           0        2.435658    1.283544    1.931872
     90          1           0        2.998158   -1.131662    3.440866
     91          1           0        1.548688   -0.703661    2.547852
     92          1           0        0.918259   -3.454865   -0.740396
     93          1           0        2.241669   -4.123527   -1.717546
     94          1           0        2.112753   -5.065411    0.629882
     95          1           0        3.661465   -4.321645    0.289976
     96          1           0        1.298165   -3.048392    1.775298
     97          1           0        2.779764   -3.631016    2.520949
     98          1           0        3.810349   -0.041164   -2.552672
     99          1           0        5.245994   -0.353802   -1.641552
    100          1           0        3.756308   -2.346990   -2.817028
    101          1           0        4.488697   -2.674079   -1.227578
    102          1           0        4.974389   -2.655807    0.743381
    103          1           0        4.853526   -2.344307    2.435815
    104          1           0        5.658405   -0.290250    2.325730
    105          1           0        9.206176   -0.471214    0.203730
    106          1           0        9.154116    1.303547    0.215834
    107          1           0        8.352175    0.428063   -1.103450
    108          1           0        5.992864    2.168888    2.184925
    109          1           0        5.843033    3.526051    1.075844
    110          1           0        4.510148    3.134217    2.189378
 ---------------------------------------------------------------------
 Rotational constants (GHZ):           0.0958878           0.0335194           0.0303496
 Standard basis: STO-3G (5D, 7F)
 There are   326 symmetry adapted cartesian basis functions of A   symmetry.
 There are   326 symmetry adapted basis functions of A   symmetry.
   326 basis functions,   978 primitive gaussians,   326 cartesian basis functions
   197 alpha electrons      197 beta electrons
       nuclear repulsion energy      8167.5428936436 Hartrees.
 NAtoms=  110 NActive=  110 NUniq=  110 SFac= 1.00D+00 NAtFMM=   60 NAOKFM=T Big=T
 Integral buffers will be    131072 words long.
 Raffenetti 1 integral format.
 Two-electron integral symmetry is turned on.
 One-electron integrals computed using PRISM.
 NBasis=   326 RedAO= T EigKep=  1.72D-01  NBF=   326
 NBsUse=   326 1.00D-06 EigRej= -1.00D+00 NBFU=   326
 ExpMin= 1.69D-01 ExpMax= 1.31D+02 ExpMxC= 1.31D+02 IAcc=3 IRadAn=         5 AccDes= 0.00D+00
 Harris functional with IExCor=  205 and IRadAn=       5 diagonalized for initial guess.
 HarFok:  IExCor=  205 AccDes= 0.00D+00 IRadAn=         5 IDoV= 1 UseB2=F ITyADJ=14
 ICtDFT=  3500011 ScaDFX=  1.000000  1.000000  1.000000  1.000000
 FoFCou: FMM=F IPFlag=           0 FMFlag=      100000 FMFlg1=        2001
         NFxFlg=           0 DoJE=T BraDBF=F KetDBF=T FulRan=T
         wScrn=  0.000000 ICntrl=       500 IOpCl=  0 I1Cent=   200000004 NGrid=           0
         NMat0=    1 NMatS0=      1 NMatT0=    0 NMatD0=    1 NMtDS0=    0 NMtDT0=    0
 Petite list used in FoFCou.
 Requested convergence on RMS density matrix=1.00D-08 within 128 cycles.
 Requested convergence on MAX density matrix=1.00D-06.
 Requested convergence on             energy=1.00D-06.
 No special actions if energy rises.
 Integral accuracy reduced to 1.0D-05 until final iterations.
 Initial convergence to 1.0D-05 achieved.  Increase integral accuracy.
 SCF Done:  E(RHF) =  -2300.22209592     A.U. after   16 cycles
            NFock= 16  Conv=0.37D-08     -V/T= 2.0092
 Range of M.O.s used for correlation:     1   326
 NBasis=   326 NAE=   197 NBE=   197 NFC=     0 NFV=     0
 NROrb=    326 NOA=   197 NOB=   197 NVA=   129 NVB=   129
          Differentiating once with respect to magnetic field using GIAOs.
          Electric field/nuclear overlap derivatives assumed to be zero.
 FoFCou: FMM=F IPFlag=           0 FMFlag=      100000 FMFlg1=        2001
         NFxFlg=           0 DoJE=F BraDBF=F KetDBF=T FulRan=T
         wScrn=  0.000000 ICntrl=      6100 IOpCl=  0 I1Cent=           7 NGrid=         110
         NMat0=    1 NMatS0=      1 NMatT0=    0 NMatD0=    1 NMtDS0=    0 NMtDT0=    0
 Symmetry not used in FoFCou.
 FoFJK:  IHMeth= 1 ICntrl=    6127 DoSepK=F KAlg= 0 I1Cent=           0 FoldK=F
 IRaf=         1 NMat=       1 IRICut=       1 DoRegI=T DoRafI=F ISym2E= 0 IDoP0=0 IntGTp=1.
          There are     3 degrees of freedom in the 1st order CPHF.  IDoFFX=0 NUNeed=     3.
      3 vectors produced by pass  0 Test12= 8.47D-13 3.33D-08 XBig12= 1.83D+02 2.32D+00.
 AX will form     3 AO Fock derivatives at one time.
      3 vectors produced by pass  1 Test12= 8.47D-13 3.33D-08 XBig12= 8.38D-01 3.24D-01.
      3 vectors produced by pass  2 Test12= 8.47D-13 3.33D-08 XBig12= 1.87D-02 3.59D-02.
      3 vectors produced by pass  3 Test12= 8.47D-13 3.33D-08 XBig12= 5.71D-04 8.03D-03.
      3 vectors produced by pass  4 Test12= 8.47D-13 3.33D-08 XBig12= 2.06D-05 1.26D-03.
      3 vectors produced by pass  5 Test12= 8.47D-13 3.33D-08 XBig12= 4.03D-07 1.07D-04.
      3 vectors produced by pass  6 Test12= 8.47D-13 3.33D-08 XBig12= 1.37D-08 2.38D-05.
      3 vectors produced by pass  7 Test12= 8.47D-13 3.33D-08 XBig12= 3.16D-10 3.01D-06.
      3 vectors produced by pass  8 Test12= 8.47D-13 3.33D-08 XBig12= 6.99D-12 3.53D-07.
      2 vectors produced by pass  9 Test12= 8.47D-13 3.33D-08 XBig12= 1.50D-13 6.15D-08.
 InvSVY:  IOpt=1 It=  1 EMax= 1.78D-15
 Solved reduced A of dimension    29 with     3 vectors.
 Calculating GIAO nuclear magnetic shielding tensors.
 SCF GIAO Magnetic shielding tensor (ppm):
      1  C    Isotropic =   125.8421   Anisotropy =   149.0305
   XX=   148.0939   YX=    13.6527   ZX=    74.8178
   XY=    12.3215   YY=    72.0686   ZY=   -54.5699
   XZ=    59.4814   YZ=   -43.1856   ZZ=   157.3639
   Eigenvalues:    33.1120   119.2185   225.1958
      2  C    Isotropic =   119.5089   Anisotropy =   158.6309
   XX=   106.3562   YX=   -30.2096   ZX=    90.3345
   XY=   -26.1982   YY=    99.4460   ZY=   -20.5900
   XZ=    78.3802   YZ=   -17.1593   ZZ=   152.7243
   Eigenvalues:    39.8114    93.4523   225.2628
      3  C    Isotropic =   119.8183   Anisotropy =   152.5375
   XX=   135.9595   YX=   -52.3068   ZX=    57.7266
   XY=   -47.1631   YY=    50.8844   ZY=   -16.5032
   XZ=    45.3695   YZ=   -24.1195   ZZ=   172.6112
   Eigenvalues:    27.8972   110.0478   221.5100
      4  C    Isotropic =   133.6020   Anisotropy =   143.2451
   XX=   158.2812   YX=     6.1208   ZX=    65.2597
   XY=    -0.8750   YY=    87.6525   ZY=   -43.5291
   XZ=    65.9312   YZ=   -48.5927   ZZ=   154.8722
   Eigenvalues:    51.5324   120.1748   229.0987
      5  C    Isotropic =   108.5177   Anisotropy =   128.6892
   XX=   108.5772   YX=   -13.0173   ZX=    69.5000
   XY=   -15.6056   YY=    91.9891   ZY=   -15.8733
   XZ=    80.4798   YZ=     2.2917   ZZ=   124.9869
   Eigenvalues:    40.5947    90.6480   194.3105
      6  C    Isotropic =   117.3548   Anisotropy =   143.1966
   XX=   145.4545   YX=   -25.9069   ZX=    59.4571
   XY=   -30.6962   YY=    57.1853   ZY=    -9.8490
   XZ=    58.9215   YZ=   -21.3371   ZZ=   149.4248
   Eigenvalues:    48.8468    90.3985   212.8192
      7  N    Isotropic =   272.8011   Anisotropy =    82.7171
   XX=   304.0206   YX=    24.8036   ZX=   -14.3036
   XY=    45.1360   YY=   260.2758   ZY=   -11.4768
   XZ=   -17.9414   YZ=    -5.9742   ZZ=   254.1069
   Eigenvalues:   240.8979   249.5595   327.9458
      8  C    Isotropic =   198.3041   Anisotropy =    12.4710
   XX=   196.5232   YX=    -7.3403   ZX=    -3.2304
   XY=    -5.7445   YY=   198.6743   ZY=     8.5475
   XZ=     0.7062   YZ=    -0.1866   ZZ=   199.7146
   Eigenvalues:   190.5863   197.7078   206.6181
      9  C    Isotropic =   180.1697   Anisotropy =    43.4298
   XX=   172.9470   YX=     9.8788   ZX=   -18.1915
   XY=     2.1511   YY=   195.9786   ZY=    17.2453
   XZ=    -3.8626   YZ=    27.1680   ZZ=   171.5836
   Eigenvalues:   151.1983   180.1880   209.1229
     10  C    Isotropic =   189.2941   Anisotropy =    34.1375
   XX=   189.8140   YX=   -16.9778   ZX=     4.1726
   XY=   -18.0532   YY=   197.1503   ZY=    -1.4324
   XZ=    10.2196   YZ=     1.4763   ZZ=   180.9180
   Eigenvalues:   171.8987   183.9310   212.0524
     11  C    Isotropic =   212.7615   Anisotropy =    20.9709
   XX=   211.7000   YX=    -0.8745   ZX=    10.1342
   XY=    -3.4891   YY=   208.9418   ZY=     2.5665
   XZ=    12.5294   YZ=    -5.5520   ZZ=   217.6428
   Eigenvalues:   202.8425   208.7000   226.7421
     12  C    Isotropic =   214.4006   Anisotropy =    19.5385
   XX=   208.3322   YX=    -8.2750   ZX=     4.0292
   XY=    -7.6849   YY=   223.3694   ZY=    -2.5358
   XZ=     4.9685   YZ=    -0.2555   ZZ=   211.5003
   Eigenvalues:   203.2560   212.5196   227.4263
     13  C    Isotropic =   210.8296   Anisotropy =     7.7607
   XX=   209.6601   YX=     3.0374   ZX=     0.3035
   XY=     1.5574   YY=   210.6573   ZY=     4.2920
   XZ=     3.1247   YZ=     2.2656   ZZ=   212.1713
   Eigenvalues:   207.5431   208.9423   216.0034
     14  N    Isotropic =   299.2801   Anisotropy =    58.9467
   XX=   303.6801   YX=   -22.1453   ZX=    35.3963
   XY=   -24.8039   YY=   320.2870   ZY=    20.8643
   XZ=    35.6341   YZ=    10.0149   ZZ=   273.8730
   Eigenvalues:   241.6099   317.6524   338.5778
     15  C    Isotropic =   202.0116   Anisotropy =    38.9194
   XX=   192.7404   YX=     3.4667   ZX=     0.0355
   XY=     1.9968   YY=   214.1848   ZY=    20.1100
   XZ=     0.3882   YZ=    19.4146   ZZ=   199.1097
   Eigenvalues:   185.2397   192.8374   227.9579
     16  C    Isotropic =   219.2886   Anisotropy =    11.2271
   XX=   224.5677   YX=     1.2036   ZX=     4.8979
   XY=     0.1508   YY=   222.1090   ZY=    -0.3431
   XZ=     5.7527   YZ=     4.0452   ZZ=   211.1892
   Eigenvalues:   209.1478   221.9447   226.7734
     17  C    Isotropic =   213.9043   Anisotropy =    22.6976
   XX=   206.8682   YX=    -0.5757   ZX=     4.4726
   XY=    -3.3222   YY=   223.3740   ZY=    10.8675
   XZ=     2.2466   YZ=     9.0779   ZZ=   211.4708
   Eigenvalues:   202.4187   210.2582   229.0361
     18  C    Isotropic =   209.1297   Anisotropy =    32.6970
   XX=   208.8503   YX=   -17.0388   ZX=    14.8947
   XY=   -11.4847   YY=   216.3112   ZY=     0.6754
   XZ=    19.2052   YZ=     3.0297   ZZ=   202.2278
   Eigenvalues:   184.4173   212.0442   230.9277
     19  C    Isotropic =   199.9783   Anisotropy =    42.1884
   XX=   211.4117   YX=    -0.0746   ZX=    22.4458
   XY=     8.9287   YY=   195.7976   ZY=    14.0655
   XZ=    17.7350   YZ=    12.6202   ZZ=   192.7255
   Eigenvalues:   175.5053   196.3256   228.1039
     20  C    Isotropic =   212.1884   Anisotropy =    20.2602
   XX=   205.2026   YX=     7.0277   ZX=    -6.2591
   XY=     4.9289   YY=   208.2433   ZY=     5.0998
   XZ=    -6.2661   YZ=     5.0033   ZZ=   223.1194
   Eigenvalues:   197.9798   212.8902   225.6953
     21  C    Isotropic =   208.1493   Anisotropy =    10.5743
   XX=   206.5514   YX=     6.3272   ZX=     0.6220
   XY=     4.5540   YY=   204.0104   ZY=    -7.8031
   XZ=     0.0225   YZ=     1.0414   ZZ=   213.8862
   Eigenvalues:   199.1328   210.1163   215.1989
     22  C    Isotropic =    96.8248   Anisotropy =    98.2765
   XX=   156.1345   YX=    -2.0108   ZX=    -8.2089
   XY=    -5.8762   YY=   133.2592   ZY=   -79.2619
   XZ=   -15.1852   YZ=   -57.2585   ZZ=     1.0807
   Eigenvalues:   -28.6617   156.7937   162.3424
     23  O    Isotropic =  -135.9576   Anisotropy =   888.7358
   XX=   364.4981   YX=   253.4700   ZX=  -132.9905
   XY=   259.6140   YY=  -482.9915   ZY=    29.6381
   XZ=  -141.9612   YZ=    40.1643   ZZ=  -289.3795
   Eigenvalues:  -573.1322  -291.2736   456.5329
     24  O    Isotropic =   284.6361   Anisotropy =   138.7350
   XX=   339.0606   YX=    10.0352   ZX=   -70.1852
   XY=    44.4898   YY=   322.2287   ZY=   170.4077
   XZ=   -49.6680   YZ=    28.3789   ZZ=   192.6190
   Eigenvalues:   119.1482   357.6340   377.1261
     25  C    Isotropic =   197.4952   Anisotropy =    56.7582
   XX=   182.3069   YX=    -1.5987   ZX=    11.6260
   XY=    -0.9251   YY=   177.7700   ZY=    -4.5261
   XZ=    11.2838   YZ=    -5.1154   ZZ=   232.4086
   Eigenvalues:   177.3222   179.8293   235.3340
     26  C    Isotropic =   209.8865   Anisotropy =    42.2643
   XX=   213.7482   YX=   -20.4238   ZX=    -8.5914
   XY=   -20.5652   YY=   213.9091   ZY=     8.3101
   XZ=   -10.1253   YZ=     5.7988   ZZ=   202.0022
   Eigenvalues:   192.8703   198.7266   238.0627
     27  C    Isotropic =   206.5094   Anisotropy =    14.9317
   XX=   216.4216   YX=    -0.1171   ZX=    -1.2134
   XY=     0.0591   YY=   200.8954   ZY=    -5.6325
   XZ=    -0.2758   YZ=    -3.8172   ZZ=   202.2112
   Eigenvalues:   196.7695   206.2947   216.4639
     28  C    Isotropic =   120.2157   Anisotropy =   157.0956
   XX=    95.6545   YX=    12.9883   ZX=   -79.8491
   XY=     9.6179   YY=    92.8034   ZY=     5.0530
   XZ=   -85.2304   YZ=     3.6107   ZZ=   172.1893
   Eigenvalues:    40.2649    95.4362   224.9461
     29  C    Isotropic =   121.8813   Anisotropy =   156.7161
   XX=   117.3372   YX=   -26.1176   ZX=   -70.9790
   XY=   -34.0955   YY=    63.5011   ZY=   -22.2056
   XZ=   -63.4195   YZ=   -23.9606   ZZ=   184.8055
   Eigenvalues:    31.3999   107.8852   226.3587
     30  C    Isotropic =   119.3942   Anisotropy =   150.3389
   XX=   133.4607   YX=    19.6967   ZX=   -53.8532
   XY=    19.8425   YY=    35.9194   ZY=    14.5356
   XZ=   -49.1611   YZ=    13.4222   ZZ=   188.8025
   Eigenvalues:    28.0864   110.4761   219.6201
     31  C    Isotropic =   134.3869   Anisotropy =   141.2804
   XX=   132.0474   YX=   -29.4377   ZX=   -60.5067
   XY=   -26.6630   YY=    81.5949   ZY=   -12.4551
   XZ=   -62.2914   YZ=   -22.6971   ZZ=   189.5183
   Eigenvalues:    53.7052   120.8815   228.5738
     32  C    Isotropic =   109.2876   Anisotropy =   126.2392
   XX=    93.2006   YX=    13.0128   ZX=   -70.2395
   XY=     0.4186   YY=    91.2495   ZY=     3.7465
   XZ=   -71.3898   YZ=     3.6682   ZZ=   143.4125
   Eigenvalues:    41.9930    92.4227   193.4470
     33  C    Isotropic =   119.8674   Anisotropy =   135.0681
   XX=   125.5887   YX=    -0.8592   ZX=   -53.2957
   XY=     8.2415   YY=    53.3271   ZY=    11.7843
   XZ=   -44.8518   YZ=    12.9419   ZZ=   180.6865
   Eigenvalues:    50.9025    98.7870   209.9128
     34  N    Isotropic =   274.6638   Anisotropy =    81.0738
   XX=   271.5253   YX=   -10.1317   ZX=    30.6525
   XY=   -23.9050   YY=   269.4701   ZY=   -40.8836
   XZ=    21.8139   YZ=   -28.9410   ZZ=   282.9959
   Eigenvalues:   239.9704   255.3079   328.7130
     35  C    Isotropic =   195.7860   Anisotropy =    15.4255
   XX=   200.8790   YX=     3.3009   ZX=     0.0363
   XY=     8.5919   YY=   196.6533   ZY=     3.4686
   XZ=     2.1040   YZ=     6.9988   ZZ=   189.8258
   Eigenvalues:   186.6832   194.6052   206.0697
     36  C    Isotropic =   181.4647   Anisotropy =    44.5192
   XX=   174.7642   YX=    21.0522   ZX=     5.0977
   XY=    11.6269   YY=   203.7171   ZY=    -3.1500
   XZ=    18.2597   YZ=   -11.1719   ZZ=   165.9128
   Eigenvalues:   153.0249   180.2250   211.1442
     37  C    Isotropic =   180.0456   Anisotropy =    44.0914
   XX=   167.6167   YX=     1.4382   ZX=     0.4975
   XY=     3.5079   YY=   184.2727   ZY=    25.7985
   XZ=    -7.2737   YZ=    20.3575   ZZ=   188.2475
   Eigenvalues:   160.6602   170.0368   209.4399
     38  C    Isotropic =   213.9559   Anisotropy =    18.7738
   XX=   213.9320   YX=    -1.8212   ZX=   -11.5851
   XY=     4.7851   YY=   209.9151   ZY=     0.6448
   XZ=    -8.9944   YZ=     1.0725   ZZ=   218.0205
   Eigenvalues:   204.9138   210.4821   226.4718
     39  C    Isotropic =   212.7692   Anisotropy =    20.3107
   XX=   207.7468   YX=    -0.7096   ZX=    -3.1051
   XY=    -2.0875   YY=   217.3162   ZY=    11.6618
   XZ=    -3.4341   YZ=     8.9174   ZZ=   213.2447
   Eigenvalues:   203.9801   208.0179   226.3097
     40  C    Isotropic =   212.2530   Anisotropy =     8.5691
   XX=   213.2400   YX=     3.5391   ZX=    -1.5685
   XY=     2.5655   YY=   212.6755   ZY=    -3.2829
   XZ=    -0.2412   YZ=    -5.1528   ZZ=   210.8436
   Eigenvalues:   207.1563   211.6370   217.9658
     41  N    Isotropic =   235.1062   Anisotropy =    25.5800
   XX=   243.4960   YX=     4.9634   ZX=     6.6100
   XY=   -14.4218   YY=   224.1830   ZY=     1.4166
   XZ=    15.6539   YZ=    15.4243   ZZ=   237.6396
   Eigenvalues:   216.7236   236.4355   252.1596
     42  C    Isotropic =   195.0561   Anisotropy =    47.8034
   XX=   190.9340   YX=    13.4055   ZX=     4.0925
   XY=    15.9391   YY=   218.8757   ZY=   -16.8602
   XZ=     2.2853   YZ=    -6.3360   ZZ=   175.3585
   Eigenvalues:   169.9336   188.3096   226.9250
     43  C    Isotropic =   223.0733   Anisotropy =     9.5171
   XX=   217.4275   YX=     0.9301   ZX=     4.1579
   XY=     0.0989   YY=   224.8095   ZY=     2.7672
   XZ=     3.4414   YZ=     1.6592   ZZ=   226.9829
   Eigenvalues:   216.0936   223.7082   229.4180
     44  C    Isotropic =   215.8953   Anisotropy =    18.0857
   XX=   214.7091   YX=     5.3917   ZX=     1.9293
   XY=     8.9075   YY=   223.9698   ZY=     2.9548
   XZ=    -1.0779   YZ=    -0.3646   ZZ=   209.0070
   Eigenvalues:   208.8814   210.8521   227.9524
     45  C    Isotropic =   211.2565   Anisotropy =    37.1882
   XX=   197.5553   YX=    -9.8297   ZX=   -14.9631
   XY=    -2.7335   YY=   220.5822   ZY=    11.7219
   XZ=   -13.3950   YZ=    13.2760   ZZ=   215.6321
   Eigenvalues:   189.7687   207.9522   236.0487
     46  C    Isotropic =   191.7112   Anisotropy =    54.0931
   XX=   213.8840   YX=     7.9273   ZX=   -27.3018
   XY=    15.9364   YY=   181.5554   ZY=    14.1126
   XZ=   -22.7798   YZ=     8.3679   ZZ=   179.6941
   Eigenvalues:   156.6510   190.7093   227.7733
     47  C    Isotropic =   212.5924   Anisotropy =    22.8984
   XX=   226.3620   YX=     4.4173   ZX=    -0.2297
   XY=     5.0893   YY=   210.4622   ZY=    -5.4275
   XZ=    -0.7552   YZ=    -7.1046   ZZ=   200.9531
   Eigenvalues:   197.7396   212.1797   227.8580
     48  C    Isotropic =   209.5309   Anisotropy =    10.7660
   XX=   214.7703   YX=    -0.1089   ZX=    -3.1408
   XY=    -7.9508   YY=   206.8137   ZY=    -3.6779
   XZ=    -4.1128   YZ=    -7.2038   ZZ=   207.0088
   Eigenvalues:   199.5424   212.3421   216.7083
     49  C    Isotropic =    96.1093   Anisotropy =    98.9136
   XX=    16.9113   YX=   -66.3852   ZX=    37.5120
   XY=   -81.6634   YY=   124.2939   ZY=    21.7601
   XZ=    25.9205   YZ=    10.2283   ZZ=   147.1228
   Eigenvalues:   -28.0461   154.3223   162.0518
     50  O    Isotropic =  -133.8427   Anisotropy =   886.7530
   XX=  -160.3514   YX=  -122.3136   ZX=   269.3875
   XY=  -140.2668   YY=  -275.2271   ZY=  -417.7439
   XZ=   248.7226   YZ=  -413.8324   ZZ=    34.0503
   Eigenvalues:  -569.2710  -289.5831   457.3259
     51  O    Isotropic =   283.3483   Anisotropy =   139.1924
   XX=   237.9103   YX=     0.8256   ZX=    82.0425
   XY=   117.9035   YY=   348.5905   ZY=   -78.4829
   XZ=   142.4691   YZ=    -4.6481   ZZ=   263.5442
   Eigenvalues:   115.4942   358.4074   376.1433
     52  C    Isotropic =   197.2037   Anisotropy =    58.1159
   XX=   222.2077   YX=     2.8685   ZX=   -24.3321
   XY=     2.8189   YY=   177.4503   ZY=    -2.2555
   XZ=   -24.3748   YZ=    -1.5212   ZZ=   191.9531
   Eigenvalues:   177.1934   178.4701   235.9476
     53  C    Isotropic =   209.9312   Anisotropy =    41.6198
   XX=   207.4830   YX=     9.6180   ZX=    11.5064
   XY=    11.7666   YY=   210.6145   ZY=    18.4888
   XZ=    10.6899   YZ=    18.8098   ZZ=   211.6960
   Eigenvalues:   192.4977   199.6182   237.6778
     54  O    Isotropic =     2.2667   Anisotropy =   520.6744
   XX=    80.4905   YX=  -111.2692   ZX=   215.7951
   XY=  -130.4556   YY=  -145.4884   ZY=  -115.2461
   XZ=   224.1288   YZ=  -101.8370   ZZ=    71.7979
   Eigenvalues:  -199.5321  -143.0508   349.3830
     55  H    Isotropic =    25.5620   Anisotropy =    12.0588
   XX=    29.4816   YX=     4.4247   ZX=    -2.6310
   XY=     3.8457   YY=    26.4942   ZY=    -2.5821
   XZ=    -3.5473   YZ=    -2.3983   ZZ=    20.7101
   Eigenvalues:    19.4788    23.6060    33.6011
     56  H    Isotropic =    25.8791   Anisotropy =     6.9135
   XX=    27.2596   YX=    -1.4760   ZX=    -3.4042
   XY=    -0.5831   YY=    27.7493   ZY=     1.1201
   XZ=    -4.5767   YZ=     1.6477   ZZ=    22.6285
   Eigenvalues:    20.2653    26.8840    30.4881
     57  H    Isotropic =    26.6304   Anisotropy =     7.7847
   XX=    26.9923   YX=     2.7996   ZX=    -3.2998
   XY=     2.5172   YY=    30.2097   ZY=     1.2587
   XZ=    -4.2531   YZ=     0.9963   ZZ=    22.6893
   Eigenvalues:    19.9567    28.1144    31.8202
     58  H    Isotropic =    31.9123   Anisotropy =     7.0234
   XX=    31.5589   YX=     2.4826   ZX=    -3.1159
   XY=     1.5357   YY=    30.2221   ZY=    -1.3600
   XZ=    -3.3682   YZ=     0.4421   ZZ=    33.9560
   Eigenvalues:    28.1946    30.9478    36.5946
     59  H    Isotropic =    32.9118   Anisotropy =     8.6839
   XX=    30.7542   YX=     3.5196   ZX=     0.8251
   XY=     0.7427   YY=    35.7536   ZY=    -4.7323
   XZ=     3.7095   YZ=    -3.9251   ZZ=    32.2275
   Eigenvalues:    26.8734    33.1609    38.7010
     60  H    Isotropic =    32.1093   Anisotropy =    13.9457
   XX=    37.7254   YX=    -5.8368   ZX=     0.5216
   XY=    -6.3791   YY=    31.2327   ZY=     2.7481
   XZ=     2.1231   YZ=     3.0933   ZZ=    27.3699
   Eigenvalues:    24.2758    30.6457    41.4065
     61  H    Isotropic =    32.2606   Anisotropy =    15.9795
   XX=    40.7818   YX=     0.2759   ZX=     5.5609
   XY=    -0.1403   YY=    28.3709   ZY=     1.3747
   XZ=     5.7909   YZ=     1.4318   ZZ=    27.6289
   Eigenvalues:    25.0182    28.8499    42.9136
     62  H    Isotropic =    32.6031   Anisotropy =    12.7966
   XX=    27.5839   YX=     0.2157   ZX=     0.8085
   XY=    -1.0631   YY=    29.7150   ZY=    -2.8841
   XZ=     1.6075   YZ=    -1.8927   ZZ=    40.5104
   Eigenvalues:    27.4497    29.2254    41.1342
     63  H    Isotropic =    32.1267   Anisotropy =    10.5311
   XX=    33.7677   YX=     0.0497   ZX=    -4.7780
   XY=    -0.0852   YY=    28.4638   ZY=     3.0665
   XZ=    -4.7826   YZ=     2.5682   ZZ=    34.1486
   Eigenvalues:    26.6366    30.5960    39.1475
     64  H    Isotropic =    31.6358   Anisotropy =    13.6554
   XX=    33.4766   YX=    -5.2519   ZX=     3.1351
   XY=    -5.0690   YY=    36.6846   ZY=    -0.4069
   XZ=     3.3602   YZ=     0.2711   ZZ=    24.7462
   Eigenvalues:    23.4510    30.7170    40.7394
     65  H    Isotropic =    31.8402   Anisotropy =    12.4299
   XX=    29.4071   YX=     3.2676   ZX=    -2.6103
   XY=     3.3828   YY=    35.9619   ZY=    -4.7721
   XZ=    -2.3958   YZ=    -4.5241   ZZ=    30.1516
   Eigenvalues:    27.1438    28.2499    40.1268
     66  H    Isotropic =    32.3618   Anisotropy =    17.1415
   XX=    28.3347   YX=     0.3496   ZX=     1.4145
   XY=     0.4674   YY=    37.3027   ZY=     8.5421
   XZ=     1.6178   YZ=     9.1496   ZZ=    31.4482
   Eigenvalues:    24.7763    28.5197    43.7895
     67  H    Isotropic =    32.4873   Anisotropy =    12.4364
   XX=    27.2323   YX=    -0.6327   ZX=     1.5845
   XY=    -1.0213   YY=    29.7719   ZY=     0.8958
   XZ=     2.0164   YZ=     1.2117   ZZ=    40.4576
   Eigenvalues:    26.6871    29.9965    40.7782
     68  H    Isotropic =    32.2457   Anisotropy =    15.4416
   XX=    38.7334   YX=     5.0376   ZX=     3.2807
   XY=     4.9428   YY=    31.4216   ZY=     3.4665
   XZ=     3.2658   YZ=     3.4637   ZZ=    26.5820
   Eigenvalues:    24.7394    29.4576    42.5401
     69  H    Isotropic =    32.5222   Anisotropy =    11.4707
   XX=    33.4720   YX=    -2.2393   ZX=    -4.0960
   XY=    -1.1617   YY=    26.6398   ZY=    -2.6415
   XZ=    -3.8322   YZ=    -3.7635   ZZ=    37.4549
   Eigenvalues:    24.8359    32.5614    40.1693
     70  H    Isotropic =    33.3587   Anisotropy =    11.3023
   XX=    38.0447   YX=     0.9923   ZX=     5.7128
   XY=     2.8358   YY=    32.1124   ZY=     2.8600
   XZ=     3.9826   YZ=    -0.3343   ZZ=    29.9190
   Eigenvalues:    27.6292    31.5533    40.8935
     71  H    Isotropic =    31.4266   Anisotropy =    17.6711
   XX=    42.5474   YX=    -0.0453   ZX=    -3.7001
   XY=     1.0164   YY=    27.7108   ZY=    -0.2172
   XZ=    -3.2683   YZ=    -1.5761   ZZ=    24.0216
   Eigenvalues:    23.2457    27.8267    43.2073
     72  H    Isotropic =    32.0446   Anisotropy =    16.0747
   XX=    36.7485   YX=    -6.2079   ZX=     5.5140
   XY=    -4.7075   YY=    30.8875   ZY=    -2.9128
   XZ=     4.4839   YZ=    -4.7375   ZZ=    28.4979
   Eigenvalues:    25.5469    27.8259    42.7611
     73  H    Isotropic =    32.0071   Anisotropy =    15.6233
   XX=    39.5093   YX=     6.3537   ZX=    -1.6082
   XY=     5.8325   YY=    29.2342   ZY=     1.7420
   XZ=    -2.2292   YZ=     1.3104   ZZ=    27.2779
   Eigenvalues:    24.5763    29.0224    42.4227
     74  H    Isotropic =    30.3101   Anisotropy =     9.5894
   XX=    26.3860   YX=    -1.2821   ZX=    -1.6154
   XY=    -1.4219   YY=    34.2574   ZY=    -3.4445
   XZ=    -1.6333   YZ=    -4.4577   ZZ=    30.2867
   Eigenvalues:    24.8965    29.3307    36.7030
     75  H    Isotropic =    31.2127   Anisotropy =    13.0995
   XX=    37.6423   YX=    -3.3463   ZX=    -3.5268
   XY=    -2.0815   YY=    27.6025   ZY=     2.4855
   XZ=    -4.2377   YZ=     1.9033   ZZ=    28.3934
   Eigenvalues:    25.7442    27.9482    39.9457
     76  H    Isotropic =    30.6616   Anisotropy =     7.6456
   XX=    34.0320   YX=    -1.6251   ZX=     2.7433
   XY=    -2.2465   YY=    25.7259   ZY=    -0.4247
   XZ=     1.4154   YZ=    -0.5978   ZZ=    32.2270
   Eigenvalues:    25.2965    30.9297    35.7587
     77  H    Isotropic =    30.5654   Anisotropy =    11.7132
   XX=    25.7226   YX=    -0.7175   ZX=    -0.8879
   XY=    -0.9111   YY=    31.6537   ZY=     4.7278
   XZ=    -1.6617   YZ=     5.3409   ZZ=    34.3199
   Eigenvalues:    25.5354    27.7866    38.3742
     78  H    Isotropic =    30.5358   Anisotropy =    12.0517
   XX=    28.5211   YX=     2.5154   ZX=    -4.1808
   XY=     3.1647   YY=    29.0344   ZY=    -3.8197
   XZ=    -4.4177   YZ=    -3.4243   ZZ=    34.0518
   Eigenvalues:    25.7492    27.2878    38.5702
     79  H    Isotropic =    31.8807   Anisotropy =    12.1653
   XX=    31.2459   YX=    -5.4744   ZX=     1.0322
   XY=    -5.8188   YY=    35.1829   ZY=    -1.9744
   XZ=     2.7661   YZ=    -2.5139   ZZ=    29.2132
   Eigenvalues:    27.1874    28.4638    39.9909
     80  H    Isotropic =    30.7180   Anisotropy =    14.2916
   XX=    26.8151   YX=     0.3394   ZX=    -1.7405
   XY=     0.2047   YY=    34.6479   ZY=     7.4435
   XZ=    -1.3364   YZ=     7.1030   ZZ=    30.6910
   Eigenvalues:    24.3428    27.5654    40.2457
     81  H    Isotropic =    30.8755   Anisotropy =    11.1211
   XX=    33.8776   YX=    -0.6820   ZX=    -6.7921
   XY=    -1.1915   YY=    30.5593   ZY=     1.0225
   XZ=    -6.1814   YZ=     0.3401   ZZ=    28.1895
   Eigenvalues:    23.9502    30.3867    38.2896
     82  H    Isotropic =    29.9382   Anisotropy =    12.4905
   XX=    27.3639   YX=     0.1854   ZX=     0.1347
   XY=     0.6965   YY=    36.3302   ZY=    -4.3274
   XZ=    -0.4776   YZ=    -5.3082   ZZ=    26.1204
   Eigenvalues:    24.2059    27.3434    38.2651
     83  H    Isotropic =    29.9059   Anisotropy =     7.9555
   XX=    26.2331   YX=     0.5855   ZX=     0.2607
   XY=     0.9029   YY=    29.2039   ZY=     1.7646
   XZ=     0.9683   YZ=     2.7253   ZZ=    34.2806
   Eigenvalues:    26.0561    28.4520    35.2095
     84  H    Isotropic =    24.7358   Anisotropy =    14.1160
   XX=    29.0850   YX=    -4.9625   ZX=     2.4212
   XY=    -4.2537   YY=    26.8061   ZY=    -2.8046
   XZ=     4.8094   YZ=    -3.5223   ZZ=    18.3164
   Eigenvalues:    16.8529    23.2080    34.1465
     85  H    Isotropic =    25.7140   Anisotropy =     6.5532
   XX=    27.8869   YX=     2.1386   ZX=     2.8013
   XY=     1.1963   YY=    27.4856   ZY=    -0.2938
   XZ=     3.5021   YZ=    -0.0010   ZZ=    21.7695
   Eigenvalues:    20.3468    26.7125    30.0828
     86  H    Isotropic =    26.6845   Anisotropy =     7.8781
   XX=    26.7039   YX=    -0.4006   ZX=     3.8708
   XY=    -0.5342   YY=    31.0021   ZY=    -1.9618
   XZ=     3.8385   YZ=    -2.2586   ZZ=    22.3474
   Eigenvalues:    19.8669    28.2499    31.9365
     87  H    Isotropic =    31.0822   Anisotropy =    13.6211
   XX=    39.5366   YX=    -1.5337   ZX=     1.8666
   XY=    -3.4032   YY=    28.2182   ZY=     0.1462
   XZ=     0.5401   YZ=    -1.1308   ZZ=    25.4918
   Eigenvalues:    25.3568    27.7268    40.1629
     88  H    Isotropic =    32.3376   Anisotropy =    13.4427
   XX=    27.9812   YX=     4.5783   ZX=     1.2275
   XY=     3.8650   YY=    31.1281   ZY=     4.7159
   XZ=     3.0865   YZ=     4.2917   ZZ=    37.9035
   Eigenvalues:    24.9872    30.7262    41.2994
     89  H    Isotropic =    33.2748   Anisotropy =     9.1189
   XX=    34.7169   YX=    -4.1754   ZX=    -3.3434
   XY=    -5.2341   YY=    34.4862   ZY=     0.3405
   XZ=    -0.1342   YZ=    -2.1205   ZZ=    30.6213
   Eigenvalues:    28.3574    32.1129    39.3541
     90  H    Isotropic =    32.4463   Anisotropy =    14.6761
   XX=    26.9803   YX=     0.5440   ZX=     1.1442
   XY=     0.6297   YY=    28.6585   ZY=    -2.2447
   XZ=     1.0851   YZ=    -2.7732   ZZ=    41.7000
   Eigenvalues:    26.5474    28.5611    42.2303
     91  H    Isotropic =    32.8013   Anisotropy =    13.9627
   XX=    40.7098   YX=    -0.4697   ZX=    -4.2799
   XY=    -1.1205   YY=    28.2334   ZY=     1.3349
   XZ=    -3.9178   YZ=    -0.0934   ZZ=    29.4605
   Eigenvalues:    27.8032    28.4909    42.1097
     92  H    Isotropic =    30.8111   Anisotropy =    15.3803
   XX=    40.4505   YX=     0.9501   ZX=     2.7120
   XY=     3.0816   YY=    27.8574   ZY=     0.3420
   XZ=     1.9481   YZ=    -1.0244   ZZ=    24.1255
   Eigenvalues:    23.7026    27.6662    41.0647
     93  H    Isotropic =    30.8753   Anisotropy =    13.0239
   XX=    25.9159   YX=     0.5493   ZX=     0.0554
   XY=     1.7427   YY=    34.0945   ZY=     6.8288
   XZ=     0.5275   YZ=     5.3250   ZZ=    32.6155
   Eigenvalues:    25.6506    27.4174    39.5579
     94  H    Isotropic =    32.3343   Anisotropy =    17.2969
   XX=    27.7435   YX=     4.6294   ZX=    -0.1979
   XY=     4.5875   YY=    42.1754   ZY=    -2.4382
   XZ=    -0.1244   YZ=    -2.4726   ZZ=    27.0841
   Eigenvalues:    26.0132    27.1242    43.8656
     95  H    Isotropic =    32.5925   Anisotropy =    11.6334
   XX=    36.8876   YX=    -4.8518   ZX=    -0.6425
   XY=    -4.1992   YY=    34.2332   ZY=     0.9788
   XZ=    -0.5702   YZ=     0.7043   ZZ=    26.6567
   Eigenvalues:    26.5628    30.8666    40.3481
     96  H    Isotropic =    32.6227   Anisotropy =    13.3666
   XX=    40.2300   YX=     1.3190   ZX=    -3.6385
   XY=     1.7857   YY=    29.2024   ZY=    -0.5371
   XZ=    -3.7522   YZ=    -1.1526   ZZ=    28.4356
   Eigenvalues:    27.2873    29.0470    41.5337
     97  H    Isotropic =    32.5007   Anisotropy =    14.5854
   XX=    27.2414   YX=    -0.1373   ZX=     2.8796
   XY=     0.4199   YY=    33.1257   ZY=    -6.3869
   XZ=     2.1857   YZ=    -6.6844   ZZ=    37.1351
   Eigenvalues:    25.9061    29.3718    42.2243
     98  H    Isotropic =    31.6464   Anisotropy =    10.8589
   XX=    26.4217   YX=    -2.6874   ZX=    -0.3820
   XY=    -1.6110   YY=    30.9406   ZY=    -4.7885
   XZ=     0.2714   YZ=    -1.5271   ZZ=    37.5769
   Eigenvalues:    25.4246    30.6289    38.8857
     99  H    Isotropic =    32.8622   Anisotropy =    12.2445
   XX=    40.4456   YX=     2.0868   ZX=    -2.2580
   XY=     1.6519   YY=    27.2420   ZY=     0.1971
   XZ=    -1.6345   YZ=     1.8039   ZZ=    30.8989
   Eigenvalues:    26.5940    30.9673    41.0252
    100  H    Isotropic =    30.9576   Anisotropy =    14.7250
   XX=    26.9773   YX=    -0.3607   ZX=    -4.8087
   XY=     0.0047   YY=    28.6721   ZY=     5.6480
   XZ=    -1.7538   YZ=     5.8471   ZZ=    37.2234
   Eigenvalues:    24.7375    27.3610    40.7743
    101  H    Isotropic =    31.4894   Anisotropy =     8.9702
   XX=    34.5718   YX=    -4.4870   ZX=    -0.9208
   XY=    -3.7239   YY=    31.3867   ZY=     0.0544
   XZ=    -0.5283   YZ=     0.9517   ZZ=    28.5098
   Eigenvalues:    28.4228    28.5760    37.4696
    102  H    Isotropic =    31.6532   Anisotropy =     9.7096
   XX=    33.1681   YX=    -3.6833   ZX=    -1.2928
   XY=    -2.2249   YY=    34.0399   ZY=     4.0290
   XZ=    -1.6078   YZ=     3.8655   ZZ=    27.7518
   Eigenvalues:    25.8494    30.9840    38.1263
    103  H    Isotropic =    32.2594   Anisotropy =    14.6883
   XX=    30.8489   YX=    -1.4481   ZX=     5.7657
   XY=    -0.8326   YY=    31.3703   ZY=    -6.4245
   XZ=     5.2105   YZ=    -6.7066   ZZ=    34.5591
   Eigenvalues:    24.7854    29.9413    42.0516
    104  H    Isotropic =    31.2391   Anisotropy =    12.7521
   XX=    32.0094   YX=     2.5344   ZX=     5.9008
   XY=     2.5558   YY=    27.4033   ZY=     0.5346
   XZ=     5.9079   YZ=     2.1072   ZZ=    34.3044
   Eigenvalues:    25.8797    28.0970    39.7405
    105  H    Isotropic =    30.5725   Anisotropy =    11.7418
   XX=    36.0731   YX=    -4.0016   ZX=     0.3432
   XY=    -4.7294   YY=    30.1126   ZY=    -0.9238
   XZ=     0.1493   YZ=    -0.4023   ZZ=    25.5316
   Eigenvalues:    25.4172    27.8999    38.4003
    106  H    Isotropic =    30.5113   Anisotropy =    12.2931
   XX=    34.4001   YX=     5.7553   ZX=     0.1996
   XY=     5.1767   YY=    31.7072   ZY=     1.2413
   XZ=    -0.4543   YZ=     0.8926   ZZ=    25.4264
   Eigenvalues:    25.0485    27.7786    38.7066
    107  H    Isotropic =    30.6309   Anisotropy =     7.8205
   XX=    31.2482   YX=     0.7010   ZX=    -1.6174
   XY=     0.9571   YY=    25.9060   ZY=    -0.7026
   XZ=    -2.5049   YZ=    -1.2211   ZZ=    34.7386
   Eigenvalues:    25.7298    30.3184    35.8446
    108  H    Isotropic =    30.9974   Anisotropy =    11.0398
   XX=    32.8885   YX=    -0.1191   ZX=     6.2490
   XY=     0.3260   YY=    30.5765   ZY=     1.3842
   XZ=     7.4836   YZ=     0.9069   ZZ=    29.5273
   Eigenvalues:    24.0311    30.6039    38.3573
    109  H    Isotropic =    30.7616   Anisotropy =    14.8513
   XX=    31.2684   YX=     6.5761   ZX=     0.4356
   XY=     6.5669   YY=    36.0438   ZY=    -1.1427
   XZ=     1.3343   YZ=    -1.2617   ZZ=    24.9727
   Eigenvalues:    24.1599    27.4624    40.6625
    110  H    Isotropic =    31.9937   Anisotropy =    11.1583
   XX=    29.5949   YX=    -0.7074   ZX=    -2.5433
   XY=    -0.8001   YY=    33.5507   ZY=     5.9531
   XZ=    -0.2433   YZ=     6.0436   ZZ=    32.8355
   Eigenvalues:    27.0780    29.4706    39.4326
 End of Minotr F.D. properties file   721 does not exist.
 End of Minotr F.D. properties file   722 does not exist.
 End of Minotr F.D. properties file   788 does not exist.
 Hyperfine terms turned off by default for NAtoms > 100.

 **********************************************************************

            Population analysis using the SCF Density.

 **********************************************************************

 Orbital symmetries:
       Occupied  (A) (A) (A) (A) (A) (A) (A) (A) (A) (A) (A) (A)
                 (A) (A) (A) (A) (A) (A) (A) (A) (A) (A) (A) (A)
                 (A) (A) (A) (A) (A) (A) (A) (A) (A) (A) (A) (A)
                 (A) (A) (A) (A) (A) (A) (A) (A) (A) (A) (A) (A)
                 (A) (A) (A) (A) (A) (A) (A) (A) (A) (A) (A) (A)
                 (A) (A) (A) (A) (A) (A) (A) (A) (A) (A) (A) (A)
                 (A) (A) (A) (A) (A) (A) (A) (A) (A) (A) (A) (A)
                 (A) (A) (A) (A) (A) (A) (A) (A) (A) (A) (A) (A)
                 (A) (A) (A) (A) (A) (A) (A) (A) (A) (A) (A) (A)
                 (A) (A) (A) (A) (A) (A) (A) (A) (A) (A) (A) (A)
                 (A) (A) (A) (A) (A) (A) (A) (A) (A) (A) (A) (A)
                 (A) (A) (A) (A) (A) (A) (A) (A) (A) (A) (A) (A)
                 (A) (A) (A) (A) (A) (A) (A) (A) (A) (A) (A) (A)
                 (A) (A) (A) (A) (A) (A) (A) (A) (A) (A) (A) (A)
                 (A) (A) (A) (A) (A) (A) (A) (A) (A) (A) (A) (A)
                 (A) (A) (A) (A) (A) (A) (A) (A) (A) (A) (A) (A)
                 (A) (A) (A) (A) (A)
       Virtual   (A) (A) (A) (A) (A) (A) (A) (A) (A) (A) (A) (A)
                 (A) (A) (A) (A) (A) (A) (A) (A) (A) (A) (A) (A)
                 (A) (A) (A) (A) (A) (A) (A) (A) (A) (A) (A) (A)
                 (A) (A) (A) (A) (A) (A) (A) (A) (A) (A) (A) (A)
                 (A) (A) (A) (A) (A) (A) (A) (A) (A) (A) (A) (A)
                 (A) (A) (A) (A) (A) (A) (A) (A) (A) (A) (A) (A)
                 (A) (A) (A) (A) (A) (A) (A) (A) (A) (A) (A) (A)
                 (A) (A) (A) (A) (A) (A) (A) (A) (A) (A) (A) (A)
                 (A) (A) (A) (A) (A) (A) (A) (A) (A) (A) (A) (A)
                 (A) (A) (A) (A) (A) (A) (A) (A) (A) (A) (A) (A)
                 (A) (A) (A) (A) (A) (A) (A) (A) (A)
 The electronic state is 1-A.
 Alpha  occ. eigenvalues --  -20.31270 -20.29711 -20.25146 -20.23714 -19.91939
 Alpha  occ. eigenvalues --  -15.47870 -15.33754 -15.32804 -15.29293 -11.17180
 Alpha  occ. eigenvalues --  -11.15569 -11.10973 -11.10102 -11.09930 -11.09351
 Alpha  occ. eigenvalues --  -11.09120 -11.08800 -11.08596 -11.08098 -11.07269
 Alpha  occ. eigenvalues --  -11.07240 -11.07156 -11.06878 -11.06160 -11.05918
 Alpha  occ. eigenvalues --  -11.05901 -11.05731 -11.05575 -11.05528 -11.05491
 Alpha  occ. eigenvalues --  -11.05351 -11.05026 -11.04948 -11.04816 -11.04808
 Alpha  occ. eigenvalues --  -11.04498 -11.04460 -11.03664 -11.03167 -11.03103
 Alpha  occ. eigenvalues --  -11.03040 -11.03016 -11.03001 -11.02956 -11.01434
 Alpha  occ. eigenvalues --  -11.01392 -11.01386 -11.01161 -11.01032 -11.01011
 Alpha  occ. eigenvalues --  -11.00924 -11.00895 -11.00849 -11.00722  -1.38449
 Alpha  occ. eigenvalues --   -1.36979  -1.28353  -1.28204  -1.26666  -1.21201
 Alpha  occ. eigenvalues --   -1.20778  -1.18442  -1.11918  -1.08670  -1.08153
 Alpha  occ. eigenvalues --   -1.06973  -1.06272  -1.04061  -1.03323  -1.00662
 Alpha  occ. eigenvalues --   -0.99828  -0.98662  -0.97909  -0.97299  -0.96590
 Alpha  occ. eigenvalues --   -0.95694  -0.94699  -0.93434  -0.93371  -0.92237
 Alpha  occ. eigenvalues --   -0.91881  -0.91014  -0.90728  -0.89246  -0.87755
 Alpha  occ. eigenvalues --   -0.86148  -0.84325  -0.82929  -0.82390  -0.80738
 Alpha  occ. eigenvalues --   -0.80679  -0.78872  -0.78746  -0.77993  -0.76276
 Alpha  occ. eigenvalues --   -0.76165  -0.74470  -0.73298  -0.72421  -0.72245
 Alpha  occ. eigenvalues --   -0.71279  -0.70360  -0.69492  -0.68757  -0.66924
 Alpha  occ. eigenvalues --   -0.65847  -0.64615  -0.64069  -0.63722  -0.62882
 Alpha  occ. eigenvalues --   -0.62637  -0.61885  -0.61709  -0.61428  -0.60952
 Alpha  occ. eigenvalues --   -0.60496  -0.59754  -0.59256  -0.59160  -0.58910
 Alpha  occ. eigenvalues --   -0.58239  -0.57783  -0.57580  -0.57224  -0.57110
 Alpha  occ. eigenvalues --   -0.56761  -0.56273  -0.56013  -0.55744  -0.55631
 Alpha  occ. eigenvalues --   -0.55313  -0.55164  -0.54570  -0.54133  -0.53783
 Alpha  occ. eigenvalues --   -0.53509  -0.53031  -0.52671  -0.52607  -0.52158
 Alpha  occ. eigenvalues --   -0.52088  -0.51132  -0.50904  -0.50593  -0.50246
 Alpha  occ. eigenvalues --   -0.49860  -0.49667  -0.49502  -0.48800  -0.48580
 Alpha  occ. eigenvalues --   -0.48327  -0.47891  -0.47536  -0.47436  -0.46792
 Alpha  occ. eigenvalues --   -0.46278  -0.46082  -0.45881  -0.45850  -0.45240
 Alpha  occ. eigenvalues --   -0.45084  -0.44721  -0.44691  -0.44235  -0.43786
 Alpha  occ. eigenvalues --   -0.43608  -0.43343  -0.43054  -0.42630  -0.42356
 Alpha  occ. eigenvalues --   -0.41677  -0.41480  -0.41061  -0.40790  -0.40493
 Alpha  occ. eigenvalues --   -0.40275  -0.39526  -0.39118  -0.38740  -0.37586
 Alpha  occ. eigenvalues --   -0.37003  -0.36523  -0.35565  -0.35118  -0.34558
 Alpha  occ. eigenvalues --   -0.33813  -0.33294  -0.32415  -0.32240  -0.31109
 Alpha  occ. eigenvalues --   -0.26584  -0.26478  -0.26099  -0.21078  -0.19888
 Alpha  occ. eigenvalues --   -0.15816  -0.15643
 Alpha virt. eigenvalues --    0.27166   0.27715   0.28127   0.29810   0.29970
 Alpha virt. eigenvalues --    0.31473   0.46606   0.47369   0.48912   0.49127
 Alpha virt. eigenvalues --    0.50246   0.50414   0.50783   0.51492   0.52791
 Alpha virt. eigenvalues --    0.52938   0.54403   0.54717   0.55615   0.56727
 Alpha virt. eigenvalues --    0.56853   0.57956   0.58267   0.58567   0.58944
 Alpha virt. eigenvalues --    0.59068   0.59680   0.60184   0.60650   0.61364
 Alpha virt. eigenvalues --    0.61659   0.62104   0.62462   0.62849   0.63185
 Alpha virt. eigenvalues --    0.63302   0.63974   0.64059   0.64367   0.64494
 Alpha virt. eigenvalues --    0.64690   0.65188   0.65283   0.65633   0.65850
 Alpha virt. eigenvalues --    0.65997   0.66470   0.66807   0.66903   0.67403
 Alpha virt. eigenvalues --    0.67671   0.67902   0.68276   0.68753   0.68955
 Alpha virt. eigenvalues --    0.69129   0.69308   0.69411   0.69893   0.70125
 Alpha virt. eigenvalues --    0.70270   0.70683   0.70851   0.70972   0.71355
 Alpha virt. eigenvalues --    0.71719   0.71875   0.72216   0.72589   0.72708
 Alpha virt. eigenvalues --    0.73154   0.73329   0.73502   0.73865   0.74071
 Alpha virt. eigenvalues --    0.74487   0.74611   0.74974   0.75217   0.75253
 Alpha virt. eigenvalues --    0.75524   0.75778   0.75880   0.76386   0.76487
 Alpha virt. eigenvalues --    0.76723   0.77224   0.77374   0.77418   0.77547
 Alpha virt. eigenvalues --    0.77881   0.78129   0.78534   0.79002   0.79130
 Alpha virt. eigenvalues --    0.79547   0.80030   0.80095   0.80343   0.80892
 Alpha virt. eigenvalues --    0.81322   0.81533   0.81903   0.82129   0.82350
 Alpha virt. eigenvalues --    0.82699   0.83526   0.83794   0.84045   0.84862
 Alpha virt. eigenvalues --    0.85807   0.86393   0.86692   0.87007   0.88283
 Alpha virt. eigenvalues --    0.88825   0.89905   0.91505   0.92066   0.94696
 Alpha virt. eigenvalues --    0.95247   0.96114   0.98777   1.00782   1.02196
 Alpha virt. eigenvalues --    1.11394   1.12158   1.16599   1.16798
          Condensed to atoms (all electrons):
 Mulliken charges:
               1
     1  C   -0.077066
     2  C    0.001502
     3  C   -0.063897
     4  C   -0.090494
     5  C    0.088391
     6  C   -0.014129
     7  N   -0.283652
     8  C    0.015379
     9  C    0.129450
    10  C    0.039800
    11  C   -0.114541
    12  C   -0.107895
    13  C    0.041623
    14  N   -0.292201
    15  C   -0.012507
    16  C   -0.095630
    17  C   -0.100307
    18  C   -0.099271
    19  C   -0.019028
    20  C   -0.104136
    21  C   -0.063889
    22  C    0.318471
    23  O   -0.275066
    24  O   -0.255933
    25  C   -0.055232
    26  C   -0.078563
    27  C   -0.109347
    28  C   -0.000019
    29  C   -0.072796
    30  C   -0.060748
    31  C   -0.091699
    32  C    0.087899
    33  C   -0.014612
    34  N   -0.287035
    35  C    0.020678
    36  C    0.128425
    37  C    0.040618
    38  C   -0.115921
    39  C   -0.104832
    40  C    0.028092
    41  N   -0.085954
    42  C   -0.007928
    43  C   -0.110802
    44  C   -0.102238
    45  C   -0.106781
    46  C   -0.012132
    47  C   -0.111473
    48  C   -0.067145
    49  C    0.320342
    50  O   -0.278849
    51  O   -0.254092
    52  C   -0.055648
    53  C   -0.079325
    54  O   -0.455051
    55  H    0.065084
    56  H    0.054445
    57  H    0.057331
    58  H    0.045575
    59  H    0.053781
    60  H    0.048548
    61  H    0.047553
    62  H    0.049520
    63  H    0.045494
    64  H    0.058196
    65  H    0.054135
    66  H    0.049004
    67  H    0.047246
    68  H    0.050057
    69  H    0.063081
    70  H    0.054478
    71  H    0.058561
    72  H    0.053403
    73  H    0.047235
    74  H    0.079401
    75  H    0.062383
    76  H    0.073022
    77  H    0.075760
    78  H    0.071042
    79  H    0.054314
    80  H    0.070459
    81  H    0.075360
    82  H    0.055706
    83  H    0.061288
    84  H    0.089965
    85  H    0.055615
    86  H    0.056703
    87  H    0.086301
    88  H    0.052761
    89  H    0.059366
    90  H    0.051537
    91  H    0.054940
    92  H    0.089009
    93  H    0.080460
    94  H    0.066096
    95  H    0.057176
    96  H    0.057414
    97  H    0.057691
    98  H    0.082150
    99  H    0.071463
   100  H    0.088825
   101  H    0.067880
   102  H    0.065858
   103  H    0.055088
   104  H    0.067157
   105  H    0.072990
   106  H    0.078872
   107  H    0.075692
   108  H    0.075232
   109  H    0.073169
   110  H    0.056324
 Sum of Mulliken charges =  -0.00000
 Mulliken charges with hydrogens summed into heavy atoms:
               1
     1  C   -0.011982
     2  C    0.001502
     3  C   -0.009452
     4  C   -0.033163
     5  C    0.088391
     6  C   -0.014129
     7  N   -0.283652
     8  C    0.015379
     9  C    0.129450
    10  C    0.085375
    11  C   -0.012213
    12  C   -0.010822
    13  C    0.041623
    14  N   -0.292201
    15  C    0.091183
    16  C    0.007509
    17  C   -0.003004
    18  C    0.018288
    19  C    0.092935
    20  C    0.022499
    21  C   -0.001506
    22  C    0.318471
    23  O   -0.275066
    24  O   -0.255933
    25  C    0.164592
    26  C    0.121570
    27  C    0.007648
    28  C   -0.000019
    29  C    0.017170
    30  C   -0.005133
    31  C   -0.034997
    32  C    0.087899
    33  C   -0.014612
    34  N   -0.287035
    35  C    0.020678
    36  C    0.128425
    37  C    0.126919
    38  C   -0.003794
    39  C    0.001644
    40  C    0.028092
    41  N   -0.085954
    42  C    0.161542
    43  C    0.012470
    44  C    0.012867
    45  C    0.046831
    46  C    0.144574
    47  C    0.009473
    48  C    0.000012
    49  C    0.320342
    50  O   -0.278849
    51  O   -0.254092
    52  C    0.171906
    53  C    0.125399
    54  O   -0.455051
 Electronic spatial extent (au):  <R**2>=          36926.0642
 Charge=              0.0000 electrons
 Dipole moment (field-independent basis, Debye):
    X=              2.2693    Y=              0.0412    Z=              3.1674  Tot=              3.8967
 Quadrupole moment (field-independent basis, Debye-Ang):
   XX=           -273.6697   YY=           -295.9068   ZZ=           -300.0277
   XY=             -7.4172   XZ=             11.2642   YZ=              1.3779
 Traceless Quadrupole moment (field-independent basis, Debye-Ang):
   XX=             16.1984   YY=             -6.0387   ZZ=            -10.1596
   XY=             -7.4172   XZ=             11.2642   YZ=              1.3779
 Octapole moment (field-independent basis, Debye-Ang**2):
  XXX=             91.2301  YYY=            -22.7656  ZZZ=             71.3198  XYY=             41.5314
  XXY=             45.6932  XXZ=             38.5127  XZZ=              2.9855  YZZ=              5.7511
  YYZ=              5.2328  XYZ=            -26.3654
 Hexadecapole moment (field-independent basis, Debye-Ang**3):
 XXXX=         -30349.4813 YYYY=          -8797.0690 ZZZZ=          -4734.1852 XXXY=            153.9400
 XXXZ=           -108.3051 YYYX=           -107.1224 YYYZ=             91.1758 ZZZX=           -284.0084
 ZZZY=             63.5130 XXYY=          -6961.7538 XXZZ=          -6071.6292 YYZZ=          -2369.6679
 XXYZ=             72.1914 YYXZ=             12.2207 ZZXY=            -62.1980
 N-N= 8.167542893644D+03 E-N=-2.171218898131D+04  KE= 2.279168379622D+03
 ******************************Gaussian NBO Version 3.1******************************
             N A T U R A L   A T O M I C   O R B I T A L   A N D
          N A T U R A L   B O N D   O R B I T A L   A N A L Y S I S
 ******************************Gaussian NBO Version 3.1******************************
       /RESON  / : Allow strongly delocalized NBO set
       /NLMO   / : Form Natural Localized Molecular Orbitals
       /NMR /    : Analyze NMR Sheilding Tensor 

 Analyzing the SCF density

 Job title: pleiokomenine_C_1a                                              

 Storage needed:    355564 in NPA,    438187 in NBO,   2133784 in NLMO ( 104796000 available)
 GSVD:  LWork=     -108884 too small for GESVD, short by      536270 words or      536270 for optimal perf.


 NATURAL POPULATIONS:  Natural atomic orbital occupancies 
                                                          
   NAO  Atom  No  lang   Type(AO)    Occupancy      Energy
 ----------------------------------------------------------
     1    C    1  S      Cor( 1S)     1.99992     -10.93508
     2    C    1  S      Val( 2S)     1.07958      -0.16721
     3    C    1  px     Val( 2p)     0.98940       0.10736
     4    C    1  py     Val( 2p)     0.98327       0.15948
     5    C    1  pz     Val( 2p)     1.00790       0.08161
 
     6    C    2  S      Cor( 1S)     1.99990     -10.94685
     7    C    2  S      Val( 2S)     1.07879      -0.17440
     8    C    2  px     Val( 2p)     0.95564       0.12643
     9    C    2  py     Val( 2p)     0.96374       0.17775
    10    C    2  pz     Val( 2p)     0.98544       0.09197
 
    11    C    3  S      Cor( 1S)     1.99994     -10.93849
    12    C    3  S      Val( 2S)     1.08325      -0.17333
    13    C    3  px     Val( 2p)     0.98519       0.11153
    14    C    3  py     Val( 2p)     0.97905       0.15762
    15    C    3  pz     Val( 2p)     0.98884       0.08956
 
    16    C    4  S      Cor( 1S)     1.99993     -10.93269
    17    C    4  S      Val( 2S)     1.07187      -0.16504
    18    C    4  px     Val( 2p)     1.01413       0.09817
    19    C    4  py     Val( 2p)     0.97878       0.16162
    20    C    4  pz     Val( 2p)     1.02272       0.07808
 
    21    C    5  S      Cor( 1S)     1.99985     -10.97893
    22    C    5  S      Val( 2S)     1.06127      -0.17750
    23    C    5  px     Val( 2p)     0.92347       0.11533
    24    C    5  py     Val( 2p)     0.97548       0.16135
    25    C    5  pz     Val( 2p)     0.92814       0.09221
 
    26    C    6  S      Cor( 1S)     1.99990     -10.93821
    27    C    6  S      Val( 2S)     1.08476      -0.18066
    28    C    6  px     Val( 2p)     0.99575       0.11212
    29    C    6  py     Val( 2p)     0.95093       0.15464
    30    C    6  pz     Val( 2p)     0.99204       0.10090
 
    31    N    7  S      Cor( 1S)     1.99998     -15.26086
    32    N    7  S      Val( 2S)     1.40800      -0.58698
    33    N    7  px     Val( 2p)     1.16874      -0.01260
    34    N    7  py     Val( 2p)     1.11138       0.00780
    35    N    7  pz     Val( 2p)     1.58434      -0.17562
 
    36    C    8  S      Cor( 1S)     1.99996     -10.99648
    37    C    8  S      Val( 2S)     1.10659      -0.22129
    38    C    8  px     Val( 2p)     0.94346       0.11146
    39    C    8  py     Val( 2p)     0.95641       0.12734
    40    C    8  pz     Val( 2p)     0.97807       0.08318
 
    41    C    9  S      Cor( 1S)     1.99996     -11.04171
    42    C    9  S      Val( 2S)     1.11251      -0.24780
    43    C    9  px     Val( 2p)     0.94502       0.09836
    44    C    9  py     Val( 2p)     0.85792       0.12707
    45    C    9  pz     Val( 2p)     0.91139       0.09647
 
    46    C   10  S      Cor( 1S)     1.99994     -11.00358
    47    C   10  S      Val( 2S)     1.09293      -0.20437
    48    C   10  px     Val( 2p)     0.96383       0.09217
    49    C   10  py     Val( 2p)     0.89941       0.11572
    50    C   10  pz     Val( 2p)     0.97241       0.11036
 
    51    C   11  S      Cor( 1S)     1.99994     -10.97154
    52    C   11  S      Val( 2S)     1.10425      -0.20637
    53    C   11  px     Val( 2p)     1.00700       0.08889
    54    C   11  py     Val( 2p)     0.99067       0.09658
    55    C   11  pz     Val( 2p)     0.98232       0.09302
 
    56    C   12  S      Cor( 1S)     1.99996     -10.96820
    57    C   12  S      Val( 2S)     1.08873      -0.18847
    58    C   12  px     Val( 2p)     1.01134       0.09596
    59    C   12  py     Val( 2p)     0.98056       0.09667
    60    C   12  pz     Val( 2p)     0.99740       0.09910
 
    61    C   13  S      Cor( 1S)     1.99998     -10.99498
    62    C   13  S      Val( 2S)     1.10025      -0.21206
    63    C   13  px     Val( 2p)     0.94686       0.11804
    64    C   13  py     Val( 2p)     0.94507       0.12138
    65    C   13  pz     Val( 2p)     0.94455       0.11936
 
    66    N   14  S      Cor( 1S)     1.99999     -15.22357
    67    N   14  S      Val( 2S)     1.42209      -0.56995
    68    N   14  px     Val( 2p)     1.30000      -0.04583
    69    N   14  py     Val( 2p)     1.12498       0.02736
    70    N   14  pz     Val( 2p)     1.43439      -0.09500
 
    71    C   15  S      Cor( 1S)     1.99994     -10.99855
    72    C   15  S      Val( 2S)     1.07031      -0.17967
    73    C   15  px     Val( 2p)     0.98872       0.09152
    74    C   15  py     Val( 2p)     0.94269       0.10721
    75    C   15  pz     Val( 2p)     0.95650       0.11225
 
    76    C   16  S      Cor( 1S)     1.99996     -10.96953
    77    C   16  S      Val( 2S)     1.08454      -0.18313
    78    C   16  px     Val( 2p)     0.96959       0.10804
    79    C   16  py     Val( 2p)     0.98763       0.10273
    80    C   16  pz     Val( 2p)     1.01679       0.10110
 
    81    C   17  S      Cor( 1S)     1.99995     -10.97136
    82    C   17  S      Val( 2S)     1.09057      -0.18965
    83    C   17  px     Val( 2p)     0.99981       0.10039
    84    C   17  py     Val( 2p)     0.97641       0.10337
    85    C   17  pz     Val( 2p)     0.99749       0.09883
 
    86    C   18  S      Cor( 1S)     1.99994     -10.96798
    87    C   18  S      Val( 2S)     1.09373      -0.18931
    88    C   18  px     Val( 2p)     0.99066       0.09937
    89    C   18  py     Val( 2p)     0.98827       0.09542
    90    C   18  pz     Val( 2p)     0.99285       0.10619
 
    91    C   19  S      Cor( 1S)     1.99995     -10.99325
    92    C   19  S      Val( 2S)     1.07305      -0.17881
    93    C   19  px     Val( 2p)     0.92406       0.12887
    94    C   19  py     Val( 2p)     0.98354       0.08799
    95    C   19  pz     Val( 2p)     0.98515       0.09344
 
    96    C   20  S      Cor( 1S)     1.99992     -10.97295
    97    C   20  S      Val( 2S)     1.10187      -0.20128
    98    C   20  px     Val( 2p)     1.01376       0.09561
    99    C   20  py     Val( 2p)     0.97987       0.10296
   100    C   20  pz     Val( 2p)     0.97104       0.09746
 
   101    C   21  S      Cor( 1S)     1.99994     -11.00083
   102    C   21  S      Val( 2S)     1.11382      -0.23276
   103    C   21  px     Val( 2p)     1.00738       0.07560
   104    C   21  py     Val( 2p)     0.99472       0.07760
   105    C   21  pz     Val( 2p)     0.96426       0.09079
 
   106    C   22  S      Cor( 1S)     1.99991     -11.10291
   107    C   22  S      Val( 2S)     1.05644      -0.25260
   108    C   22  px     Val( 2p)     0.86619       0.00366
   109    C   22  py     Val( 2p)     0.78183       0.19652
   110    C   22  pz     Val( 2p)     0.89444       0.10208
 
   111    O   23  S      Cor( 1S)     1.99999     -20.08962
   112    O   23  S      Val( 2S)     1.80830      -1.04881
   113    O   23  px     Val( 2p)     1.28262      -0.12654
   114    O   23  py     Val( 2p)     1.40665      -0.12969
   115    O   23  pz     Val( 2p)     1.81158      -0.29561
 
   116    O   24  S      Cor( 1S)     1.99999     -20.20660
   117    O   24  S      Val( 2S)     1.72985      -1.01934
   118    O   24  px     Val( 2p)     1.80423      -0.34652
   119    O   24  py     Val( 2p)     1.54454      -0.23666
   120    O   24  pz     Val( 2p)     1.18912      -0.07603
 
   121    C   25  S      Cor( 1S)     1.99984     -11.03961
   122    C   25  S      Val( 2S)     1.07648      -0.22091
   123    C   25  px     Val( 2p)     1.02324       0.05007
   124    C   25  py     Val( 2p)     1.03945       0.04345
   125    C   25  pz     Val( 2p)     0.82591       0.08773
 
   126    C   26  S      Cor( 1S)     1.99992     -11.00844
   127    C   26  S      Val( 2S)     1.06500      -0.18870
   128    C   26  px     Val( 2p)     0.95848       0.08519
   129    C   26  py     Val( 2p)     0.96748       0.08199
   130    C   26  pz     Val( 2p)     1.02539       0.06785
 
   131    C   27  S      Cor( 1S)     1.99995     -10.97342
   132    C   27  S      Val( 2S)     1.08251      -0.17821
   133    C   27  px     Val( 2p)     0.97978       0.10561
   134    C   27  py     Val( 2p)     1.02617       0.09493
   135    C   27  pz     Val( 2p)     0.99756       0.10129
 
   136    C   28  S      Cor( 1S)     1.99990     -10.94682
   137    C   28  S      Val( 2S)     1.07761      -0.17363
   138    C   28  px     Val( 2p)     0.95246       0.14283
   139    C   28  py     Val( 2p)     0.96074       0.18549
   140    C   28  pz     Val( 2p)     0.99618       0.06526
 
   141    C   29  S      Cor( 1S)     1.99993     -10.93348
   142    C   29  S      Val( 2S)     1.08467      -0.16652
   143    C   29  px     Val( 2p)     0.99134       0.12395
   144    C   29  py     Val( 2p)     0.98998       0.16754
   145    C   29  pz     Val( 2p)     0.98611       0.06806
 
   146    C   30  S      Cor( 1S)     1.99994     -10.94166
   147    C   30  S      Val( 2S)     1.08372      -0.17553
   148    C   30  px     Val( 2p)     0.97856       0.12922
   149    C   30  py     Val( 2p)     0.97555       0.16451
   150    C   30  pz     Val( 2p)     0.99350       0.05902
 
   151    C   31  S      Cor( 1S)     1.99993     -10.93502
   152    C   31  S      Val( 2S)     1.07133      -0.16779
   153    C   31  px     Val( 2p)     1.00483       0.11608
   154    C   31  py     Val( 2p)     0.97088       0.16879
   155    C   31  pz     Val( 2p)     1.04270       0.04460
 
   156    C   32  S      Cor( 1S)     1.99985     -10.98360
   157    C   32  S      Val( 2S)     1.05946      -0.18060
   158    C   32  px     Val( 2p)     0.89646       0.13027
   159    C   32  py     Val( 2p)     0.97713       0.16270
   160    C   32  pz     Val( 2p)     0.95538       0.06051
 
   161    C   33  S      Cor( 1S)     1.99990     -10.94098
   162    C   33  S      Val( 2S)     1.08039      -0.18071
   163    C   33  px     Val( 2p)     0.99019       0.13428
   164    C   33  py     Val( 2p)     0.93921       0.15986
   165    C   33  pz     Val( 2p)     1.01991       0.06198
 
   166    N   34  S      Cor( 1S)     1.99998     -15.26979
   167    N   34  S      Val( 2S)     1.40614      -0.59610
   168    N   34  px     Val( 2p)     1.44939      -0.12987
   169    N   34  py     Val( 2p)     1.07648       0.01072
   170    N   34  pz     Val( 2p)     1.34357      -0.09414
 
   171    C   35  S      Cor( 1S)     1.99996     -11.01823
   172    C   35  S      Val( 2S)     1.11001      -0.24288
   173    C   35  px     Val( 2p)     0.96933       0.06655
   174    C   35  py     Val( 2p)     0.96052       0.10380
   175    C   35  pz     Val( 2p)     0.93851       0.09814
 
   176    C   36  S      Cor( 1S)     1.99996     -11.05654
   177    C   36  S      Val( 2S)     1.11222      -0.26267
   178    C   36  px     Val( 2p)     0.92365       0.08039
   179    C   36  py     Val( 2p)     0.84830       0.11530
   180    C   36  pz     Val( 2p)     0.94428       0.07855
 
   181    C   37  S      Cor( 1S)     1.99991     -11.04029
   182    C   37  S      Val( 2S)     1.12076      -0.26171
   183    C   37  px     Val( 2p)     1.01514       0.05946
   184    C   37  py     Val( 2p)     0.91673       0.06427
   185    C   37  pz     Val( 2p)     0.87437       0.09438
 
   186    C   38  S      Cor( 1S)     1.99994     -10.98635
   187    C   38  S      Val( 2S)     1.10476      -0.22159
   188    C   38  px     Val( 2p)     1.00225       0.07605
   189    C   38  py     Val( 2p)     0.98691       0.08188
   190    C   38  pz     Val( 2p)     0.99255       0.07570
 
   191    C   39  S      Cor( 1S)     1.99996     -10.98839
   192    C   39  S      Val( 2S)     1.09219      -0.21104
   193    C   39  px     Val( 2p)     1.01367       0.07657
   194    C   39  py     Val( 2p)     0.97521       0.07851
   195    C   39  pz     Val( 2p)     0.99189       0.08086
 
   196    C   40  S      Cor( 1S)     1.99998     -11.02343
   197    C   40  S      Val( 2S)     1.10489      -0.24624
   198    C   40  px     Val( 2p)     0.94372       0.09079
   199    C   40  py     Val( 2p)     0.95145       0.09151
   200    C   40  pz     Val( 2p)     0.95009       0.08133
 
   201    N   41  S      Cor( 1S)     1.99999     -15.41737
   202    N   41  S      Val( 2S)     1.40212      -0.66113
   203    N   41  px     Val( 2p)     1.20874      -0.11304
   204    N   41  py     Val( 2p)     1.15732      -0.10055
   205    N   41  pz     Val( 2p)     1.20593      -0.11651
 
   206    C   42  S      Cor( 1S)     1.99991     -11.03486
   207    C   42  S      Val( 2S)     1.08951      -0.23188
   208    C   42  px     Val( 2p)     1.01988       0.04557
   209    C   42  py     Val( 2p)     0.85023       0.09153
   210    C   42  pz     Val( 2p)     0.99706       0.06359
 
   211    C   43  S      Cor( 1S)     1.99997     -10.99838
   212    C   43  S      Val( 2S)     1.07891      -0.20919
   213    C   43  px     Val( 2p)     1.02061       0.06666
   214    C   43  py     Val( 2p)     1.00612       0.06498
   215    C   43  pz     Val( 2p)     0.97563       0.07253
 
   216    C   44  S      Cor( 1S)     1.99996     -10.99506
   217    C   44  S      Val( 2S)     1.08469      -0.20964
   218    C   44  px     Val( 2p)     1.01695       0.06979
   219    C   44  py     Val( 2p)     0.97659       0.07677
   220    C   44  pz     Val( 2p)     0.99174       0.07499
 
   221    C   45  S      Cor( 1S)     1.99994     -10.98864
   222    C   45  S      Val( 2S)     1.09332      -0.20889
   223    C   45  px     Val( 2p)     1.02524       0.08118
   224    C   45  py     Val( 2p)     0.96295       0.08156
   225    C   45  pz     Val( 2p)     0.99956       0.07523
 
   226    C   46  S      Cor( 1S)     1.99992     -11.02801
   227    C   46  S      Val( 2S)     1.09095      -0.22680
   228    C   46  px     Val( 2p)     0.85349       0.09340
   229    C   46  py     Val( 2p)     1.00490       0.05889
   230    C   46  pz     Val( 2p)     1.01219       0.05540
 
   231    C   47  S      Cor( 1S)     1.99992     -10.99627
   232    C   47  S      Val( 2S)     1.09933      -0.22419
   233    C   47  px     Val( 2p)     0.96824       0.07314
   234    C   47  py     Val( 2p)     0.97339       0.07943
   235    C   47  pz     Val( 2p)     1.03415       0.06032
 
   236    C   48  S      Cor( 1S)     1.99995     -11.01569
[...]

 Contributions to Isotropic shielding for atom   95 (    32.5925 ppm):
                         Standard Origin              Atomic Origin
 NLMO      Total    Paramagnetic  Diamagnetic   Paramagnetic  Diamagnetic
   98      -0.1455        0.3737      -0.5192        -1.2167       1.0712
  100      -0.2227        0.4769      -0.6996        -1.0250       0.8023
  102       1.2031        0.7322       0.4709         0.4037       0.7993
  105       1.1699        0.7271       0.4429         0.2791       0.8909
  106       2.0309        3.8613      -1.8304         0.2019       1.8290
  107      26.3766       -0.2564      26.6330         0.5281      25.8486
  114      -0.1737       -1.3318       1.1581        -0.3092       0.1355
  116      -0.3232       -1.7463       1.4231        -0.6425       0.3193
 Sum       29.9154        2.8366      27.0788        -1.7806      31.6961

 Contributions to Isotropic shielding for atom   96 (    32.6227 ppm):
                         Standard Origin              Atomic Origin
 NLMO      Total    Paramagnetic  Diamagnetic   Paramagnetic  Diamagnetic
   97       2.0225       -1.6402       3.6627         1.2117       0.8108
  102       0.2429       -1.3952       1.6380        -0.5449       0.7877
  105       1.3959        0.2173       1.1786         0.5178       0.8780
  106       0.0958       -0.9538       1.0496        -0.8176       0.9134
  108      26.0918        0.5456      25.5462         0.3128      25.7790
  109       1.7271        1.6427       0.0844        -0.0630       1.7901
 Sum       31.5760       -1.5835      33.1595         0.6169      30.9591

 Contributions to Isotropic shielding for atom   97 (    32.5008 ppm):
                         Standard Origin              Atomic Origin
 NLMO      Total    Paramagnetic  Diamagnetic   Paramagnetic  Diamagnetic
   97       1.1114        0.9805       0.1310         0.3403       0.7711
   98      -0.2245        0.9588      -1.1833        -1.2722       1.0477
  105       0.4697        3.1288      -2.6591        -0.4775       0.9472
  108       2.3259        0.6627       1.6632         0.5497       1.7762
  109      26.3675       -0.2160      26.5835         0.5871      25.7804
  117      -0.0363       -1.5602       1.5239        -0.8858       0.8495
 Sum       30.0137        3.9545      26.0592        -1.1584      31.1721

 Contributions to Isotropic shielding for atom   98 (    31.6464 ppm):
                         Standard Origin              Atomic Origin
 NLMO      Total    Paramagnetic  Diamagnetic   Paramagnetic  Diamagnetic
   71      -0.8050        0.0191      -0.8241        -1.9106       1.1056
   80      -0.1118        0.7552      -0.8670        -1.1973       1.0856
   85       2.0015       -1.5427       3.5442         1.1615       0.8399
   89      -0.1046        0.1422      -0.2468        -1.0381       0.9335
  100       0.5170       -0.8126       1.3297        -0.1320       0.6490
  111      25.6777        0.1758      25.5019         0.5249      25.1528
  112       1.6432        2.4736      -0.8303        -0.3663       2.0095
  113      -0.0778       -0.7803       0.7025        -1.1734       1.0956
  121       0.0542       -1.0914       1.1456        -0.7386       0.7928
 Sum       28.7945       -0.6610      29.4555        -4.8699      33.6644

 Contributions to Isotropic shielding for atom   99 (    32.8622 ppm):
                         Standard Origin              Atomic Origin
 NLMO      Total    Paramagnetic  Diamagnetic   Paramagnetic  Diamagnetic
   83      -0.4026        1.2458      -1.6484        -1.0021       0.5995
   85       1.1493        0.2740       0.8754         0.4144       0.7349
   87      -0.2879       -0.1514      -0.1366        -1.1278       0.8398
   89      -0.2301        0.3066      -0.5368        -1.1495       0.9194
  100       0.4013       -0.6493       1.0506         0.3565       0.0448
  110       0.4001        2.3611      -1.9610        -0.2600       0.6601
  111       2.0252        2.4447      -0.4194         0.0919       1.9333
  112      26.0553       -0.1914      26.2468         0.5796      25.4758
  118       0.7361       -1.1833       1.9194        -0.0887       0.8248
  120       1.3992       -0.5435       1.9427         0.4836       0.9156
  121      -0.2841       -3.3758       3.0917        -1.2585       0.9744
  123       0.3448       -0.9355       1.2804        -0.4165       0.7613
  126       0.0489       -1.7412       1.7902        -0.4450       0.4939
  191      -0.5692        1.3188      -1.8880         0.2981      -0.8673
 Sum       30.7864       -0.8205      31.6069        -3.5239      34.3102

 Contributions to Isotropic shielding for atom  100 (    30.9576 ppm):
                         Standard Origin              Atomic Origin
 NLMO      Total    Paramagnetic  Diamagnetic   Paramagnetic  Diamagnetic
   99      -0.4437        0.7934      -1.2371        -1.1122       0.6685
  100       1.3147       -0.7199       2.0346         0.4450       0.8697
  101       0.0495        0.9480      -0.8984        -0.9784       1.0280
  111      -0.0472        0.0926      -0.1398        -1.2230       1.1758
  113      25.8366        0.4857      25.3509         0.9307      24.9059
  114       1.0930        2.1566      -1.0635        -0.6603       1.7534
  121       0.0647       -1.0592       1.1238        -0.5544       0.6190
  195       0.3565       -1.1132       1.4696         1.1918      -0.8354
 Sum       28.2240        1.5839      26.6401        -1.9609      30.1849

 Contributions to Isotropic shielding for atom  101 (    31.4895 ppm):
                         Standard Origin              Atomic Origin
 NLMO      Total    Paramagnetic  Diamagnetic   Paramagnetic  Diamagnetic
   89      -0.3632        0.5898      -0.9530        -1.0385       0.6753
   99      -0.5483        1.1985      -1.7469        -1.4526       0.9043
  100       1.1000       -0.5928       1.6928         0.5156       0.5844
  107      -0.2498       -1.6377       1.3879        -0.7770       0.5272
  113       1.3519        2.3368      -0.9848        -0.5501       1.9021
  114      26.5766        0.2761      26.3005         1.0215      25.5551
  116      -0.4786       -2.4615       1.9828        -0.4992       0.0205
  120       0.6783       -0.6567       1.3350         0.2577       0.4206
  121       0.2526       -2.1995       2.4522        -0.7183       0.9709
  191      -0.6796        1.2832      -1.9628         0.2051      -0.8847
 Sum       27.6399       -1.8640      29.5039        -3.0357      30.6757

 Contributions to Isotropic shielding for atom  102 (    31.6532 ppm):
                         Standard Origin              Atomic Origin
 NLMO      Total    Paramagnetic  Diamagnetic   Paramagnetic  Diamagnetic
   87       0.3450       -1.0018       1.3467         0.0575       0.2875
   97      -0.2287        1.1545      -1.3832        -0.9498       0.7210
   98       1.8369       -1.2837       3.1206         0.8983       0.9385
  105      -0.1065        0.2142      -0.3207        -1.0401       0.9336
  107      -0.3609       -1.9510       1.5901        -0.7232       0.3624
  114      -0.3976       -1.8597       1.4622        -0.2647      -0.1329
  115       0.4473        2.0170      -1.5696        -0.4053       0.8526
  116      26.2594       -0.1564      26.4158         0.6123      25.6471
  117       1.5712        3.3999      -1.8287        -0.3374       1.9086
  118       0.0986       -0.0837       0.1823        -0.9939       1.0925
  120       0.4789       -1.6234       2.1023        -0.3995       0.8784
  121       0.6127       -2.5386       3.1513        -1.0940       1.7068
  191      -0.7415        1.1068      -1.8483         0.1666      -0.9082
 Sum       29.8148       -2.6061      32.4208        -4.4731      34.2878

 Contributions to Isotropic shielding for atom  103 (    32.2594 ppm):
                         Standard Origin              Atomic Origin
 NLMO      Total    Paramagnetic  Diamagnetic   Paramagnetic  Diamagnetic
   87       0.3943       -0.8817       1.2760         0.1913       0.2030
   94      -0.2040        1.3599      -1.5639        -1.0591       0.8551
   97      -0.2313        1.4168      -1.6481        -1.0467       0.8155
   98       1.9289       -0.5849       2.5138         0.9400       0.9889
  115       0.4168        2.6751      -2.2583        -0.6537       1.0705
  116       1.6682        3.0165      -1.3483        -0.2326       1.9008
  117      26.4570       -0.4227      26.8797         0.6271      25.8299
  119      -0.1604       -0.7243       0.5639        -1.3108       1.1504
  121       0.2544       -0.8520       1.1064        -0.7776       1.0320
 Sum       30.5240        5.0028      25.5212        -3.3219      33.8460

 Contributions to Isotropic shielding for atom  104 (    31.2391 ppm):
                         Standard Origin              Atomic Origin
 NLMO      Total    Paramagnetic  Diamagnetic   Paramagnetic  Diamagnetic
   81      -0.5133        1.3405      -1.8538        -1.2159       0.7026
   82      -0.0572        0.0148      -0.0720        -1.0015       0.9443
   86      -0.3658        1.5149      -1.8807        -1.4804       1.1145
   87       2.0594       -0.4291       2.4885         1.1202       0.9392
   98       0.2806       -0.8052       1.0858         0.0647       0.2160
  115       1.3576        1.2472       0.1104         0.2313       1.1263
  117      -0.2398        0.1217      -0.3615        -1.4085       1.1687
  118      -0.0553        4.9058      -4.9611        -0.9433       0.8880
  119      25.9650       -0.6663      26.6313         0.4556      25.5094
  122       0.9612       -2.1610       3.1222        -0.7124       1.6736
  126       0.1532       -0.9322       1.0854        -0.2985       0.4517
  127      -0.2298       -2.1755       1.9457        -0.6488       0.4190
  193      -0.8540        0.3571      -1.2110         0.1480      -1.0020
 Sum       28.4616        2.3326      26.1290        -5.6896      34.1511

 Contributions to Isotropic shielding for atom  105 (    30.5725 ppm):
                         Standard Origin              Atomic Origin
 NLMO      Total    Paramagnetic  Diamagnetic   Paramagnetic  Diamagnetic
  120      -1.3998        1.0228      -2.4226        -2.2933       0.8935
  121      -0.6019        2.3196      -2.9215        -2.1628       1.5609
  122      -2.0395        1.5229      -3.5624        -2.8230       0.7834
  123       1.4057       -0.1365       1.5423        -0.0599       1.4656
  124      26.5076        0.6594      25.8481         1.2769      25.2307
  125       1.1400        4.6169      -3.4769        -0.9023       2.0423
  126       1.3779        1.1559       0.2220        -0.4939       1.8719
  191       0.6451       -1.7560       2.4011         1.4183      -0.7732
  192       0.8373        1.0520      -0.2147         1.0608      -0.2235
  193       1.6001       -1.2013       2.8014         1.6606      -0.0604
  194       0.5502        1.0873      -0.5371         0.0773       0.4729
 Sum       30.0226       10.3429      19.6797        -3.2413      33.2640

 Contributions to Isotropic shielding for atom  106 (    30.5112 ppm):
                         Standard Origin              Atomic Origin
 NLMO      Total    Paramagnetic  Diamagnetic   Paramagnetic  Diamagnetic
  120      -0.6840        0.3403      -1.0244        -1.3049       0.6209
  121      -0.1529        1.1447      -1.2976        -1.1839       1.0310
  122      -0.5771        0.4711      -1.0482        -0.6132       0.0361
  123       1.0473        0.8572       0.1901        -1.0280       2.0753
  124       0.5277        4.0225      -3.4948        -1.4578       1.9855
  125      26.0226        0.3623      25.6603         0.8513      25.1713
  126       1.2515        1.3826      -0.1312        -0.7439       1.9954
  191       0.2638       -0.7881       1.0519         0.6430      -0.3792
  193       1.0780       -1.0145       2.0925         1.5471      -0.4691
  194       1.0630        0.4862       0.5768         0.8064       0.2566
 Sum       29.8399        7.2645      22.5754        -2.4840      32.3239

 Contributions to Isotropic shielding for atom  107 (    30.6309 ppm):
                         Standard Origin              Atomic Origin
 NLMO      Total    Paramagnetic  Diamagnetic   Paramagnetic  Diamagnetic
  120      -0.9880        0.7184      -1.7064        -1.8958       0.9078
  121      -0.4746        1.5591      -2.0337        -2.0010       1.5264
  122      -1.4272        1.4973      -2.9245        -2.2774       0.8502
  123       2.8816       -5.0775       7.9591         1.4674       1.4142
  124       1.0898        1.7181      -0.6283        -0.7853       1.8752
  125       1.4446        1.9697      -0.5251        -0.6003       2.0449
  126      26.1653        1.0137      25.1516         1.0048      25.1605
  191       0.3706       -1.1486       1.5191         1.1371      -0.7666
 Sum       29.0620        2.2502      26.8117        -3.9507      33.0126

 Contributions to Isotropic shielding for atom  108 (    30.9974 ppm):
                         Standard Origin              Atomic Origin
 NLMO      Total    Paramagnetic  Diamagnetic   Paramagnetic  Diamagnetic
   76      -0.5097       -0.0189      -0.4909        -1.3657       0.8559
   81      -0.4566        0.9130      -1.3696        -1.1829       0.7263
   82       1.1919       -0.1562       1.3480         0.0024       1.1894
   87      -0.2225        0.9874      -1.2099        -1.1047       0.8822
  118      -0.3462        0.5113      -0.8575        -1.0683       0.7221
  122       1.1016       -1.0921       2.1937         0.5120       0.5895
  125       0.0684       -1.2223       1.2907        -0.6496       0.7180
  127      26.0140        0.1952      25.8188         0.6547      25.3593
  128       1.4841        3.9153      -2.4312        -0.5006       1.9847
  129       1.7010        0.6905       1.0106        -0.1305       1.8316
  193      -1.0271        0.5100      -1.5371         0.2570      -1.2841
 Sum       28.9989        5.2333      23.7656        -4.5760      33.5749

 Contributions to Isotropic shielding for atom  109 (    30.7616 ppm):
                         Standard Origin              Atomic Origin
 NLMO      Total    Paramagnetic  Diamagnetic   Paramagnetic  Diamagnetic
   75      -0.5652        0.6993      -1.2645        -1.2809       0.7157
   76      -0.9198        0.2402      -1.1600        -2.2790       1.3592
   79      -0.4628        0.7551      -1.2179        -1.0917       0.6289
   82       1.2056        0.4381       0.7675        -0.0502       1.2557
  122       0.6728       -0.5266       1.1994         0.3669       0.3059
  125       0.0094       -1.1809       1.1903        -0.6070       0.6164
  127       1.5207        3.8601      -2.3395        -0.4477       1.9683
  128      26.0430        0.1100      25.9330         0.7085      25.3345
  129       1.6879        1.0915       0.5964        -0.1086       1.7965
 Sum       29.1915        5.4868      23.7047        -4.7896      33.9811

 Contributions to Isotropic shielding for atom  110 (    31.9937 ppm):
                         Standard Origin              Atomic Origin
 NLMO      Total    Paramagnetic  Diamagnetic   Paramagnetic  Diamagnetic
   76      -0.7841       -0.1218      -0.6623        -1.9984       1.2143
   79      -0.4051        0.6219      -1.0270        -1.0608       0.6557
   82       2.0545       -3.1967       5.2513         1.2870       0.7675
   86      -0.2066        0.5879      -0.7945        -1.2400       1.0334
  122       0.5225       -0.5732       1.0957        -0.0569       0.5794
  127       1.8173        1.4918       0.3255        -0.0982       1.9155
  128       1.8110        2.1046      -0.2936        -0.0852       1.8961
  129      26.4184        0.8196      25.5988         0.7326      25.6858
 Sum       31.2279        1.7341      29.4938        -2.5199      33.7478
 
 1\1\GINC-PCSN02\SP\RHF\STO-3G\C45H56N4O5\ABENIDD\30-May-2024\0\\# nmr=
 giao hf/sto-3g pop=nbo geom=connectivity\\pleiokomenine_C_1a\\0,1\C,0,
 0.,0.,0.\C,0,1.4022,0.,0.\C,0,2.0954,1.2291,0.\C,0,1.4105,2.4526,-0.00
 71\C,0,0.0269,2.4444,-0.0011\C,0,-0.6621,1.216,0.026\N,0,-0.8623,3.557
 5,-0.0111\C,0,-2.1297,1.5063,0.214\C,0,-2.1376,2.9296,-0.4499\C,0,-3.2
 136,0.6472,-0.4363\C,0,-2.0961,2.7639,-2.0372\C,0,-3.278,1.9406,-2.553
 7\C,0,-4.1304,1.4708,-1.3689\N,0,-4.0524,0.2205,0.6862\C,0,-4.9782,-0.
 8243,0.31\C,0,-5.9727,-0.2016,-0.6853\C,0,-5.289,0.5584,-1.8385\C,0,-2
 .3788,1.3153,1.7356\C,0,-3.1692,0.0063,1.8088\C,0,-4.6398,2.7617,-0.63
 48\C,0,-3.4577,3.6896,-0.1993\C,0,-3.6629,4.2825,1.1854\O,0,-4.5615,3.
 9807,1.961\O,0,-2.7665,5.2825,1.4198\C,0,-2.8773,5.879,2.7111\C,0,-0.3
 715,4.7785,-0.6295\C,0,2.1566,-1.31,0.1022\C,0,2.3117,-1.7832,1.5319\C
 ,0,1.2004,-2.2837,2.2231\C,0,3.5516,-1.6992,2.1949\C,0,3.6847,-2.0858,
 3.5363\C,0,2.5664,-2.5277,4.2243\C,0,1.3371,-2.6348,3.5556\N,0,2.461,-
 2.8828,5.5961\C,0,0.3017,-3.1909,4.5003\C,0,1.0054,-2.7383,5.8443\C,0,
 -1.139,-2.6485,4.4847\C,0,0.6679,-1.2034,6.1067\C,0,-0.8414,-0.9858,6.
 2815\C,0,-1.5778,-2.2995,5.9471\N,0,-1.9645,-3.7139,3.7833\C,0,-3.4418
 ,-3.6244,4.0642\C,0,-3.8214,-3.3496,5.506\C,0,-3.0964,-2.115,6.0273\C,
 0,0.1623,-4.6995,4.1736\C,0,-1.3296,-5.0082,4.1845\C,0,-1.098,-3.3207,
 7.0354\C,0,0.4448,-3.4638,7.0768\C,0,0.8769,-4.9045,7.2833\O,0,0.1585,
 -5.8794,7.0965\O,0,2.1455,-4.966,7.772\C,0,2.6403,-6.2925,7.9544\C,0,3
 .4438,-2.2981,6.4966\O,0,-1.8307,-3.5681,2.4083\H,0,-0.5578,-0.9313,0.
 0418\H,0,3.1828,1.2368,0.026\H,0,1.969,3.381,0.0031\H,0,-2.773,-0.2124
 ,-0.9599\H,0,-1.1655,2.2967,-2.3828\H,0,-2.1117,3.7504,-2.5194\H,0,-3.
 8772,2.5422,-3.2483\H,0,-2.9029,1.0852,-3.1295\H,0,-4.4657,-1.6849,-0.
 1361\H,0,-5.5343,-1.1849,1.1828\H,0,-6.6295,0.494,-0.1469\H,0,-6.6202,
 -0.9846,-1.0964\H,0,-4.8948,-0.188,-2.5411\H,0,-6.0371,1.1397,-2.3907\
 H,0,-2.9809,2.116,2.1625\H,0,-1.4713,1.2468,2.3476\H,0,-2.5234,-0.8678
 ,1.6748\H,0,-3.7052,-0.081,2.7585\H,0,-5.2927,3.3279,-1.3132\H,0,-5.27
 36,2.492,0.2162\H,0,-3.4974,4.567,-0.8632\H,0,-2.7514,5.1265,3.4961\H,
 0,-2.0785,6.6189,2.8118\H,0,-3.839,6.3911,2.8137\H,0,0.0417,4.598,-1.6
 283\H,0,0.4047,5.2367,-0.0073\H,0,-1.1763,5.5133,-0.7283\H,0,3.1409,-1
 .2048,-0.3722\H,0,1.6394,-2.0827,-0.4818\H,0,0.2396,-2.3946,1.7287\H,0
 ,4.4248,-1.3208,1.6684\H,0,4.6517,-2.0098,4.0197\H,0,-1.2449,-1.7598,3
 .847\H,0,1.1838,-0.8436,7.0062\H,0,1.0265,-0.5628,5.2914\H,0,-1.0569,-
 0.6695,7.31\H,0,-1.1738,-0.1659,5.6324\H,0,-3.81,-2.8076,3.4299\H,0,-3
 .8809,-4.5609,3.7024\H,0,-4.9035,-3.1836,5.5656\H,0,-3.6121,-4.2227,6.
 1311\H,0,-3.4009,-1.2422,5.435\H,0,-3.4081,-1.9144,7.0594\H,0,0.5238,-
 4.9162,3.1581\H,0,0.7412,-5.3627,4.8141\H,0,-1.615,-5.77,3.4517\H,0,-1
 .7085,-5.2918,5.1641\H,0,-1.5937,-4.2843,6.9227\H,0,-1.4266,-2.9667,8.
 0236\H,0,0.7819,-2.947,7.9884\H,0,2.0585,-6.8144,8.7204\H,0,3.6775,-6.
 2233,8.2937\H,0,2.6218,-6.8441,7.0091\H,0,3.1869,-2.5071,7.5395\H,0,4.
 4324,-2.7347,6.3183\H,0,3.5141,-1.2106,6.3809\\Version=ES64L-G16RevB.0
 1\State=1-A\HF=-2300.2220959\RMSD=3.659e-09\Dipole=0.2997943,0.2451948
 ,1.483345\Quadrupole=-6.3427382,-3.2923799,9.6351181,1.6575297,4.16194
 67,-10.9861418\PG=C01 [X(C45H56N4O5)]\\@


 OUR LITTLE SYSTEMS HAVE THEIR DAY,    
   THEY HAVE THEIR DAY AND CEASE TO BE.
   THEY ARE BUT BROKEN LIGHTS OF THEE, 
 AND THOU, OH LORD, ART MORE THAN THEY.
          -------------------          
 LET KNOWLEDGE GROW FROM MORE TO MORE, 
   BUT MORE OF REVERENCE IN US DWELL.  
   THAT MIND AND SOUL, ACCORDING WELL, 
 MAY MAKE ONE MUSIC AS BEFORE.....     
          -------------------          
                    LORD TENNYSON      
 Job cpu time:       0 days  0 hours 11 minutes 48.5 seconds.
 Elapsed time:       0 days  0 hours  1 minutes 59.9 seconds.
 File lengths (MBytes):  RWF=     67 Int=      0 D2E=      0 Chk=     10 Scr=      1
 Normal termination of Gaussian 16 at Thu May 30 08:59:07 2024.
