 Entering Gaussian System, Link 0=g16
 Input=1_pleiokomenine_1a_c_11.gjf
 Output=1_pleiokomenine_1a_c_11.log
 Initial command:
 /opt/gaussian/g16/l1.exe "/data/abenidd/Elvis/pleiokomenine_C/NMR_HF/1a/1_pleiokomenine_1a_c_11/Gau-24176.inp" -scrdir="/data/abenidd/Elvis/pleiokomenine_C/NMR_HF/1a/1_pleiokomenine_1a_c_11/"
 Entering Link 1 = /opt/gaussian/g16/l1.exe PID=     24178.
  
 Copyright (c) 1988-2017, Gaussian, Inc.  All Rights Reserved.
  
 This is part of the Gaussian(R) 16 program.  It is based on
 the Gaussian(R) 09 system (copyright 2009, Gaussian, Inc.),
 the Gaussian(R) 03 system (copyright 2003, Gaussian, Inc.),
 the Gaussian(R) 98 system (copyright 1998, Gaussian, Inc.),
 the Gaussian(R) 94 system (copyright 1995, Gaussian, Inc.),
 the Gaussian 92(TM) system (copyright 1992, Gaussian, Inc.),
 the Gaussian 90(TM) system (copyright 1990, Gaussian, Inc.),
 the Gaussian 88(TM) system (copyright 1988, Gaussian, Inc.),
 the Gaussian 86(TM) system (copyright 1986, Carnegie Mellon
 University), and the Gaussian 82(TM) system (copyright 1983,
 Carnegie Mellon University). Gaussian is a federally registered
 trademark of Gaussian, Inc.
  
 This software contains proprietary and confidential information,
 including trade secrets, belonging to Gaussian, Inc.
  
 This software is provided under written license and may be
 used, copied, transmitted, or stored only in accord with that
 written license.
  
 The following legend is applicable only to US Government
 contracts under FAR:
  
                    RESTRICTED RIGHTS LEGEND
  
 Use, reproduction and disclosure by the US Government is
 subject to restrictions as set forth in subparagraphs (a)
 and (c) of the Commercial Computer Software - Restricted
 Rights clause in FAR 52.227-19.
  
 Gaussian, Inc.
 340 Quinnipiac St., Bldg. 40, Wallingford CT 06492
  
  
 ---------------------------------------------------------------
 Warning -- This program may not be used in any manner that
 competes with the business of Gaussian, Inc. or will provide
 assistance to any competitor of Gaussian, Inc.  The licensee
 of this program is prohibited from giving any competitor of
 Gaussian, Inc. access to this program.  By using this program,
 the user acknowledges that Gaussian, Inc. is engaged in the
 business of creating and licensing software in the field of
 computational chemistry and represents and warrants to the
 licensee that it is not a competitor of Gaussian, Inc. and that
 it will not use this program in any manner prohibited above.
 ---------------------------------------------------------------
  

 Cite this work as:
 Gaussian 16, Revision B.01,
 M. J. Frisch, G. W. Trucks, H. B. Schlegel, G. E. Scuseria, 
 M. A. Robb, J. R. Cheeseman, G. Scalmani, V. Barone, 
 G. A. Petersson, H. Nakatsuji, X. Li, M. Caricato, A. V. Marenich, 
 J. Bloino, B. G. Janesko, R. Gomperts, B. Mennucci, H. P. Hratchian, 
 J. V. Ortiz, A. F. Izmaylov, J. L. Sonnenberg, D. Williams-Young, 
 F. Ding, F. Lipparini, F. Egidi, J. Goings, B. Peng, A. Petrone, 
 T. Henderson, D. Ranasinghe, V. G. Zakrzewski, J. Gao, N. Rega, 
 G. Zheng, W. Liang, M. Hada, M. Ehara, K. Toyota, R. Fukuda, 
 J. Hasegawa, M. Ishida, T. Nakajima, Y. Honda, O. Kitao, H. Nakai, 
 T. Vreven, K. Throssell, J. A. Montgomery, Jr., J. E. Peralta, 
 F. Ogliaro, M. J. Bearpark, J. J. Heyd, E. N. Brothers, K. N. Kudin, 
 V. N. Staroverov, T. A. Keith, R. Kobayashi, J. Normand, 
 K. Raghavachari, A. P. Rendell, J. C. Burant, S. S. Iyengar, 
 J. Tomasi, M. Cossi, J. M. Millam, M. Klene, C. Adamo, R. Cammi, 
 J. W. Ochterski, R. L. Martin, K. Morokuma, O. Farkas, 
 J. B. Foresman, and D. J. Fox, Gaussian, Inc., Wallingford CT, 2016.
 
 ******************************************
 Gaussian 16:  ES64L-G16RevB.01 20-Dec-2017
                30-May-2024 
 ******************************************
 %nprocshared=8
 Will use up to    8 processors via shared memory.
 ----------------------------------------------
 # nmr=giao hf/sto-3g pop=nbo geom=connectivity
 ----------------------------------------------
 1/38=1,57=2,172=1/1;
 2/12=2,17=6,18=5,40=1/2;
 3/6=3,11=9,25=1,30=1/1,2,3,8;
 4//1;
 5/5=2,38=5/2;
 8/6=1,10=90,11=11/1;
 10/13=100,45=16/2;
 6/7=2,8=2,9=2,10=2,28=1,40=1,64=1/1,7;
 99/9=1/99;
 ------------------
 pleiokomenine_C_1a
 ------------------
 Symbolic Z-matrix:
 Charge =  0 Multiplicity = 1
 C                     0.        0.        0. 
 C                     1.4022    0.        0. 
 C                     2.0966    1.2282    0. 
 C                     1.4127    2.4513   -0.0125 
 C                     0.0294    2.4433   -0.0537 
 C                    -0.6626    1.216    -0.032 
 N                    -0.8556    3.5556   -0.1526 
 C                    -2.1422    1.5091    0.0096 
 C                    -2.088     2.9155   -0.6887 
 C                    -3.1584    0.6325   -0.726 
 C                    -1.8997    2.7117   -2.2623 
 C                    -3.0351    1.8867   -2.8684 
 C                    -3.9872    1.4349   -1.7564 
 N                    -4.0993    0.2271    0.3223 
 C                    -4.9852   -0.8261   -0.1207 
 C                    -5.8837   -0.2265   -1.2159 
 C                    -5.0964    0.5115   -2.3146 
 C                    -2.5397    1.3603    1.5021 
 C                    -3.3369    0.054     1.5347 
 C                    -4.5628    2.7387   -1.0984 
 C                    -3.4253    3.6801   -0.5794 
 C                    -3.7608    4.3071    0.7645 
 O                    -4.7451    4.0432    1.444 
 O                    -2.871     5.2914    1.076 
 C                    -3.1036    5.9143    2.3384 
 C                    -0.3196    4.7691   -0.7478 
 C                     2.1611   -1.3095   -0.0515 
 C                     2.5276   -1.7439   -1.4558 
 C                     1.5306   -1.9067   -2.4268 
 C                     3.8698   -1.9985   -1.8035 
 C                     4.2212   -2.4167   -3.0956 
 C                     3.2266   -2.5761   -4.0453 
 C                     1.8968   -2.2791   -3.7099 
 N                     3.3533   -3.0342   -5.3849 
 C                     1.0484   -2.4035   -4.9477 
 C                     1.9632   -3.42     -5.7328 
 C                    -0.3658   -2.9666   -4.8414 
 C                     1.659    -4.8846   -5.1984 
 C                     0.199    -5.2797   -5.4786 
 C                    -0.5862   -4.0324   -5.9531 
 N                    -1.3434   -1.7829   -4.8297 
 C                    -2.2593   -1.7727   -6.0288 
 C                    -2.959    -3.1033   -6.2649 
 C                    -2.0797   -4.3412   -6.0793 
 C                     0.8264   -0.9905   -5.5039 
 C                    -0.4628   -0.5505   -4.8355 
 C                     0.0608   -3.6505   -7.3319 
 C                     1.609    -3.4916   -7.2296 
 C                     2.1488   -2.3837   -8.1219 
 O                     1.4641   -1.522    -8.6593 
 O                     3.4877   -2.5291   -8.3199 
 C                     4.0761   -1.5138   -9.1332 
 C                     4.4717   -3.9274   -5.6555 
 O                    -2.1045   -1.8015   -3.6864 
 H                    -0.5593   -0.931     0.0109 
 H                     3.1846    1.2347   -0.0029 
 H                     1.9722    3.3792   -0.0127 
 H                    -2.6691   -0.2358   -1.1877 
 H                    -1.8606    3.6866   -2.7663 
 H                    -0.946     2.2288   -2.509 
 H                    -3.5697    2.4813   -3.6195 
 H                    -2.6175    1.0243   -3.3998 
 H                    -4.4322   -1.6935   -0.5003 
 H                    -5.6205   -1.172     0.7025 
 H                    -6.4895   -1.0195   -1.6695 
 H                    -6.5885    0.4777   -0.7548 
 H                    -4.6388   -0.2474   -2.9631 
 H                    -5.7899    1.0805   -2.9452 
 H                    -3.1796    2.1718    1.8457 
 H                    -1.6958    1.3107    2.2005 
 H                    -2.6824   -0.8239    1.4979 
 H                    -3.9687   -0.0026    2.426 
 H                    -5.1542    3.2885   -1.8433 
 H                    -5.2689    2.4838   -0.3014 
 H                    -3.4023    4.5406   -1.2656 
 H                    -3.0815    5.1739    3.1444 
 H                    -2.3015    6.6368    2.5122 
 H                    -4.0573    6.4509    2.3291 
 H                     0.1722    4.5763   -1.708 
 H                     0.4038    5.2379   -0.0722 
 H                    -1.115     5.5004   -0.9211 
 H                     1.5684   -2.1056    0.418 
 H                     3.0631   -1.2162    0.5673 
 H                     0.4862   -1.723    -2.1883 
 H                     4.6566   -1.8748   -1.0621 
 H                     5.2619   -2.6089   -3.3304 
 H                    -0.5191   -3.4398   -3.8606 
 H                     2.3229   -5.6189   -5.6722 
 H                     1.8518   -4.9701   -4.1217 
 H                    -0.2427   -5.7096   -4.5709 
 H                     0.1643   -6.0692   -6.2402 
 H                    -2.9966   -0.9822   -5.8406 
 H                    -1.6695   -1.4617   -6.8929 
 H                    -3.8192   -3.1851   -5.5883 
 H                    -3.3789   -3.1014   -7.2781 
 H                    -2.4165   -4.8544   -5.1681 
 H                    -2.2626   -5.0491   -6.8972 
 H                     1.6429   -0.2878   -5.3059 
 H                     0.6438   -0.9829   -6.5739 
 H                    -0.9796    0.2559   -5.3646 
 H                    -0.3131   -0.2513   -3.7936 
 H                    -0.4024   -2.761    -7.7577 
 H                    -0.1496   -4.4466   -8.06 
 H                     2.0421   -4.4079   -7.66 
 H                     3.6732   -1.5586   -10.1496 
 H                     5.1529   -1.6983   -9.1784 
 H                     3.9129   -0.525    -8.6931 
 H                     4.3903   -4.3597   -6.6575 
 H                     5.4178   -3.3767   -5.6203 
 H                     4.5196   -4.7552   -4.9387 
 
 Stoichiometry    C45H56N4O5
 Framework group  C1[X(C45H56N4O5)]
 Deg. of freedom   324
 Full point group                 C1      NOp   1
 Largest Abelian subgroup         C1      NOp   1
 Largest concise Abelian subgroup C1      NOp   1
                         Standard orientation:                         
 ---------------------------------------------------------------------
 Center     Atomic      Atomic             Coordinates (Angstroms)
 Number     Number       Type             X           Y           Z
 ---------------------------------------------------------------------
      1          6           0       -1.797746   -1.727896   -1.540850
      2          6           0       -1.126263   -2.956549   -1.465422
      3          6           0       -1.514109   -3.901231   -0.491863
      4          6           0       -2.550837   -3.631850    0.411729
      5          6           0       -3.181666   -2.401229    0.357795
      6          6           0       -2.807372   -1.467502   -0.628946
      7          7           0       -4.193272   -1.891041    1.221842
      8          6           0       -3.715006   -0.267765   -0.511953
      9          6           0       -4.057828   -0.423336    1.013429
     10          6           0       -3.207002    1.154360   -0.760326
     11          6           0       -2.820262    0.091519    1.883236
     12          6           0       -2.484194    1.552609    1.584252
     13          6           0       -3.401484    2.069555    0.471370
     14          7           0       -4.104536    1.674053   -1.796148
     15          6           0       -3.621675    2.914311   -2.360863
     16          6           0       -3.688260    3.971795   -1.245704
     17          6           0       -3.026442    3.515629    0.067892
     18          6           0       -4.792968   -0.470624   -1.609473
     19          6           0       -4.429836    0.572587   -2.669122
     20          6           0       -4.871645    1.956041    1.009807
     21          6           0       -5.218088    0.495789    1.453813
     22          6           0       -6.624328    0.085156    1.046840
     23          8           0       -7.384743    0.750399    0.354431
     24          8           0       -6.979014   -1.087508    1.644067
     25          6           0       -8.280338   -1.554861    1.292074
     26          6           0       -4.259573   -2.456860    2.559599
     27          6           0        0.038861   -3.242613   -2.389556
     28          6           0        1.386432   -2.887916   -1.795145
     29          6           0        1.638724   -1.584666   -1.346543
     30          6           0        2.405627   -3.856405   -1.692737
     31          6           0        3.663178   -3.537407   -1.159162
     32          6           0        3.900712   -2.245638   -0.721579
     33          6           0        2.870621   -1.294744   -0.783066
     34          7           0        5.105088   -1.699991   -0.199866
     35          6           0        3.345822   -0.026407   -0.125106
     36          6           0        4.892928   -0.238356   -0.344315
     37          6           0        2.929435    1.324755   -0.698974
     38          6           0        5.257225    0.217204   -1.821788
     39          6           0        4.972825    1.715785   -2.020755
     40          6           0        4.175166    2.250524   -0.806160
     41          7           0        1.759363    1.852675    0.143177
     42          6           0        2.098014    3.127962    0.875143
     43          6           0        2.697601    4.198953   -0.024463
     44          6           0        3.723515    3.693760   -1.040481
     45          6           0        2.774044    0.001877    1.298791
     46          6           0        1.462009    0.745988    1.133694
     47          6           0        5.161620    2.125859    0.409123
     48          6           0        5.742998    0.685207    0.547541
     49          6           0        5.934517    0.262791    1.996648
     50          8           0        5.452238    0.839973    2.963295
     51          8           0        6.790301   -0.792069    2.085555
     52          6           0        7.007804   -1.263050    3.415734
     53          6           0        6.341309   -2.328135   -0.646007
     54          8           0        0.659008    2.071257   -0.649411
     55          1           0       -1.526641   -0.987276   -2.287629
     56          1           0       -0.995008   -4.855201   -0.426511
     57          1           0       -2.827018   -4.376040    1.149254
     58          1           0       -2.161823    1.146423   -1.098061
     59          1           0       -3.044142   -0.009750    2.953562
     60          1           0       -1.919178   -0.514110    1.725574
     61          1           0       -2.598344    2.156138    2.493218
     62          1           0       -1.431284    1.633524    1.292116
     63          1           0       -2.600147    2.817753   -2.747443
     64          1           0       -4.260730    3.239209   -3.189694
     65          1           0       -3.216958    4.899594   -1.590175
     66          1           0       -4.739995    4.213722   -1.044260
     67          1           0       -1.938595    3.579600   -0.067665
     68          1           0       -3.280380    4.217611    0.871070
     69          1           0       -5.799809   -0.268341   -1.246956
     70          1           0       -4.815937   -1.473469   -2.052377
     71          1           0       -3.577456    0.254018   -3.279364
     72          1           0       -5.281380    0.788213   -3.321171
     73          1           0       -4.990769    2.619146    1.877569
     74          1           0       -5.580865    2.328455    0.263432
     75          1           0       -5.263567    0.512202    2.553595
     76          1           0       -8.361956   -1.691180    0.208990
     77          1           0       -8.433523   -2.524401    1.773846
     78          1           0       -9.045702   -0.862408    1.655799
     79          1           0       -3.283786   -2.454215    3.058453
     80          1           0       -4.629413   -3.486992    2.520074
     81          1           0       -4.956206   -1.891376    3.186036
     82          1           0       -0.084704   -2.691528   -3.331116
     83          1           0        0.011892   -4.303920   -2.669064
     84          1           0        0.875053   -0.814403   -1.416538
     85          1           0        2.225581   -4.873712   -2.034350
     86          1           0        4.427647   -4.303569   -1.098232
     87          1           0        2.492923    1.199658   -1.700570
     88          1           0        6.315324    0.024393   -2.040184
     89          1           0        4.696413   -0.355324   -2.571098
     90          1           0        4.420556    1.860529   -2.957707
     91          1           0        5.916744    2.264356   -2.133166
     92          1           0        1.158353    3.482967    1.316652
     93          1           0        2.762465    2.868707    1.701306
     94          1           0        1.891701    4.706755   -0.569519
     95          1           0        3.157216    4.968178    0.607946
     96          1           0        3.268052    3.768003   -2.037544
     97          1           0        4.585378    4.372178   -1.062349
     98          1           0        2.623560   -0.984458    1.750635
     99          1           0        3.381055    0.584137    1.984948
    100          1           0        1.087147    1.187898    2.061867
    101          1           0        0.677649    0.119712    0.697754
    102          1           0        4.696211    2.457087    1.336891
    103          1           0        6.003389    2.816905    0.260621
    104          1           0        6.768972    0.727242    0.150004
    105          1           0        7.505042   -0.494668    4.015524
    106          1           0        7.661200   -2.138143    3.362177
    107          1           0        6.062220   -1.565273    3.876796
    108          1           0        7.210382   -1.741092   -0.333586
    109          1           0        6.448380   -3.321855   -0.198044
    110          1           0        6.381573   -2.427760   -1.736788
 ---------------------------------------------------------------------
 Rotational constants (GHZ):           0.0999859           0.0327126           0.0293428
 Standard basis: STO-3G (5D, 7F)
 There are   326 symmetry adapted cartesian basis functions of A   symmetry.
 There are   326 symmetry adapted basis functions of A   symmetry.
   326 basis functions,   978 primitive gaussians,   326 cartesian basis functions
   197 alpha electrons      197 beta electrons
       nuclear repulsion energy      8161.0116086461 Hartrees.
 NAtoms=  110 NActive=  110 NUniq=  110 SFac= 1.00D+00 NAtFMM=   60 NAOKFM=T Big=T
 Integral buffers will be    131072 words long.
 Raffenetti 1 integral format.
 Two-electron integral symmetry is turned on.
 One-electron integrals computed using PRISM.
 NBasis=   326 RedAO= T EigKep=  1.72D-01  NBF=   326
 NBsUse=   326 1.00D-06 EigRej= -1.00D+00 NBFU=   326
 ExpMin= 1.69D-01 ExpMax= 1.31D+02 ExpMxC= 1.31D+02 IAcc=3 IRadAn=         5 AccDes= 0.00D+00
 Harris functional with IExCor=  205 and IRadAn=       5 diagonalized for initial guess.
 HarFok:  IExCor=  205 AccDes= 0.00D+00 IRadAn=         5 IDoV= 1 UseB2=F ITyADJ=14
 ICtDFT=  3500011 ScaDFX=  1.000000  1.000000  1.000000  1.000000
 FoFCou: FMM=F IPFlag=           0 FMFlag=      100000 FMFlg1=        2001
         NFxFlg=           0 DoJE=T BraDBF=F KetDBF=T FulRan=T
         wScrn=  0.000000 ICntrl=       500 IOpCl=  0 I1Cent=   200000004 NGrid=           0
         NMat0=    1 NMatS0=      1 NMatT0=    0 NMatD0=    1 NMtDS0=    0 NMtDT0=    0
 Petite list used in FoFCou.
 Requested convergence on RMS density matrix=1.00D-08 within 128 cycles.
 Requested convergence on MAX density matrix=1.00D-06.
 Requested convergence on             energy=1.00D-06.
 No special actions if energy rises.
 Integral accuracy reduced to 1.0D-05 until final iterations.
 Initial convergence to 1.0D-05 achieved.  Increase integral accuracy.
 SCF Done:  E(RHF) =  -2300.21766771     A.U. after   16 cycles
            NFock= 16  Conv=0.39D-08     -V/T= 2.0092
 Range of M.O.s used for correlation:     1   326
 NBasis=   326 NAE=   197 NBE=   197 NFC=     0 NFV=     0
 NROrb=    326 NOA=   197 NOB=   197 NVA=   129 NVB=   129
          Differentiating once with respect to magnetic field using GIAOs.
          Electric field/nuclear overlap derivatives assumed to be zero.
 FoFCou: FMM=F IPFlag=           0 FMFlag=      100000 FMFlg1=        2001
         NFxFlg=           0 DoJE=F BraDBF=F KetDBF=T FulRan=T
         wScrn=  0.000000 ICntrl=      6100 IOpCl=  0 I1Cent=           7 NGrid=         110
         NMat0=    1 NMatS0=      1 NMatT0=    0 NMatD0=    1 NMtDS0=    0 NMtDT0=    0
 Symmetry not used in FoFCou.
 FoFJK:  IHMeth= 1 ICntrl=    6127 DoSepK=F KAlg= 0 I1Cent=           0 FoldK=F
 IRaf=         1 NMat=       1 IRICut=       1 DoRegI=T DoRafI=F ISym2E= 0 IDoP0=0 IntGTp=1.
          There are     3 degrees of freedom in the 1st order CPHF.  IDoFFX=0 NUNeed=     3.
      3 vectors produced by pass  0 Test12= 8.47D-13 3.33D-08 XBig12= 1.80D+02 2.07D+00.
 AX will form     3 AO Fock derivatives at one time.
      3 vectors produced by pass  1 Test12= 8.47D-13 3.33D-08 XBig12= 7.25D-01 3.08D-01.
      3 vectors produced by pass  2 Test12= 8.47D-13 3.33D-08 XBig12= 1.96D-02 3.42D-02.
      3 vectors produced by pass  3 Test12= 8.47D-13 3.33D-08 XBig12= 6.12D-04 1.03D-02.
      3 vectors produced by pass  4 Test12= 8.47D-13 3.33D-08 XBig12= 2.25D-05 9.66D-04.
      3 vectors produced by pass  5 Test12= 8.47D-13 3.33D-08 XBig12= 3.31D-07 9.21D-05.
      3 vectors produced by pass  6 Test12= 8.47D-13 3.33D-08 XBig12= 9.35D-09 1.80D-05.
      3 vectors produced by pass  7 Test12= 8.47D-13 3.33D-08 XBig12= 3.87D-10 2.76D-06.
      3 vectors produced by pass  8 Test12= 8.47D-13 3.33D-08 XBig12= 7.53D-12 4.14D-07.
      2 vectors produced by pass  9 Test12= 8.47D-13 3.33D-08 XBig12= 1.40D-13 8.11D-08.
 InvSVY:  IOpt=1 It=  1 EMax= 3.55D-15
 Solved reduced A of dimension    29 with     3 vectors.
 Calculating GIAO nuclear magnetic shielding tensors.
 SCF GIAO Magnetic shielding tensor (ppm):
      1  C    Isotropic =   125.3919   Anisotropy =   147.5166
   XX=   156.5062   YX=    19.0063   ZX=    58.6640
   XY=     9.9608   YY=    95.9923   ZY=    69.6759
   XZ=    52.4562   YZ=    70.6721   ZZ=   123.6773
   Eigenvalues:    32.8025   119.6370   223.7363
      2  C    Isotropic =   120.7557   Anisotropy =   159.1130
   XX=   122.1101   YX=    46.2466   ZX=    76.8120
   XY=    44.7362   YY=   115.5052   ZY=    27.8795
   XZ=    81.8158   YZ=    27.3986   ZZ=   124.6519
   Eigenvalues:    41.1213    94.3148   226.8311
      3  C    Isotropic =   119.7968   Anisotropy =   153.9523
   XX=   135.1799   YX=    62.9725   ZX=    50.3791
   XY=    65.1595   YY=    66.7388   ZY=    32.6482
   XZ=    41.7233   YZ=    32.6471   ZZ=   157.4719
   Eigenvalues:    28.1532   108.8057   222.4317
      4  C    Isotropic =   133.6669   Anisotropy =   143.9831
   XX=   165.2390   YX=    18.6969   ZX=    56.9765
   XY=    19.5575   YY=   106.2529   ZY=    55.4482
   XZ=    55.2309   YZ=    66.6334   ZZ=   129.5088
   Eigenvalues:    50.8604   120.4847   229.6556
      5  C    Isotropic =   107.6569   Anisotropy =   130.3514
   XX=   116.5085   YX=    42.6635   ZX=    63.3365
   XY=    29.5728   YY=   106.7371   ZY=    22.2009
   XZ=    69.5757   YZ=    20.5937   ZZ=    99.7252
   Eigenvalues:    39.9990    88.4139   194.5579
      6  C    Isotropic =   116.8859   Anisotropy =   144.8540
   XX=   137.5101   YX=    38.3333   ZX=    56.5718
   XY=    51.1929   YY=    71.6204   ZY=    32.3625
   XZ=    49.0879   YZ=    32.8170   ZZ=   141.5273
   Eigenvalues:    48.5175    88.6850   213.4552
      7  N    Isotropic =   271.8255   Anisotropy =    82.0424
   XX=   268.3270   YX=   -16.7623   ZX=   -33.6245
   XY=   -22.3195   YY=   277.7675   ZY=    41.4946
   XZ=   -18.9750   YZ=    28.2331   ZZ=   269.3820
   Eigenvalues:   235.9856   252.9704   326.5204
      8  C    Isotropic =   198.1212   Anisotropy =    12.5203
   XX=   199.1804   YX=     1.3350   ZX=     3.0602
   XY=     7.3908   YY=   196.2903   ZY=    -5.2065
   XZ=    -4.0814   YZ=    -9.2874   ZZ=   198.8929
   Eigenvalues:   189.2471   198.6483   206.4681
      9  C    Isotropic =   179.8664   Anisotropy =    43.2934
   XX=   163.9419   YX=    10.3811   ZX=    -9.6003
   XY=    -5.8196   YY=   203.5891   ZY=   -13.2407
   XZ=   -21.3898   YZ=   -10.2596   ZZ=   172.0683
   Eigenvalues:   151.3934   179.4772   208.7287
     10  C    Isotropic =   189.1746   Anisotropy =    33.3386
   XX=   182.9358   YX=     3.4461   ZX=    15.6340
   XY=    -1.9258   YY=   184.9534   ZY=   -11.9972
   XZ=    11.0124   YZ=   -12.8911   ZZ=   199.6346
   Eigenvalues:   171.3139   184.8096   211.4003
     11  C    Isotropic =   212.8555   Anisotropy =    21.2661
   XX=   218.0970   YX=     3.0902   ZX=    12.2397
   XY=     9.5658   YY=   210.8768   ZY=     2.8842
   XZ=     5.9003   YZ=     3.8792   ZZ=   209.5926
   Eigenvalues:   203.7636   207.7700   227.0329
     12  C    Isotropic =   215.0401   Anisotropy =    17.9325
   XX=   215.6086   YX=    -0.5377   ZX=     7.7993
   XY=    -2.9291   YY=   215.0159   ZY=    -7.8426
   XZ=     7.5769   YZ=    -8.3228   ZZ=   214.4960
   Eigenvalues:   204.5283   213.5969   226.9952
     13  C    Isotropic =   210.6478   Anisotropy =     7.1817
   XX=   211.9738   YX=     1.9475   ZX=     1.2535
   XY=     2.5473   YY=   213.9687   ZY=     0.6567
   XZ=    -2.6716   YZ=     0.8052   ZZ=   206.0010
   Eigenvalues:   205.7871   210.7209   215.4356
     14  N    Isotropic =   299.9978   Anisotropy =    59.4981
   XX=   265.1310   YX=     6.1028   ZX=    40.4620
   XY=    15.5605   YY=   317.1303   ZY=   -14.0054
   XZ=    34.8385   YZ=   -12.5622   ZZ=   317.7321
   Eigenvalues:   242.1759   318.1543   339.6632
     15  C    Isotropic =   202.1608   Anisotropy =    38.8263
   XX=   190.1439   YX=     7.3735   ZX=    -3.5124
   XY=     7.6203   YY=   222.8274   ZY=   -11.0062
   XZ=    -4.5872   YZ=    -9.9623   ZZ=   193.5111
   Eigenvalues:   187.4311   191.0062   228.0450
     16  C    Isotropic =   219.2597   Anisotropy =     8.4274
   XX=   212.5129   YX=     0.4406   ZX=     4.1901
   XY=    -4.0091   YY=   223.2621   ZY=     1.4271
   XZ=     4.6013   YZ=     2.5107   ZZ=   222.0040
   Eigenvalues:   210.3478   222.5533   224.8779
     17  C    Isotropic =   214.2219   Anisotropy =    21.9331
   XX=   207.6563   YX=     2.2172   ZX=     2.2419
   XY=     4.5478   YY=   225.3661   ZY=    -9.4074
   XZ=     2.2626   YZ=    -6.2390   ZZ=   209.6433
   Eigenvalues:   203.5205   210.3012   228.8439
     18  C    Isotropic =   209.2858   Anisotropy =    31.4986
   XX=   201.8904   YX=     8.0049   ZX=    20.8826
   XY=     4.1126   YY=   210.6242   ZY=    -4.1195
   XZ=    19.5500   YZ=   -10.8566   ZZ=   215.3426
   Eigenvalues:   184.0437   213.5287   230.2848
     19  C    Isotropic =   200.0344   Anisotropy =    40.3953
   XX=   184.2793   YX=    11.8842   ZX=     7.6663
   XY=    14.8004   YY=   214.8393   ZY=    13.6415
   XZ=    14.2598   YZ=     6.6540   ZZ=   200.9845
   Eigenvalues:   177.0083   196.1302   226.9645
     20  C    Isotropic =   212.0737   Anisotropy =    21.8987
   XX=   220.6846   YX=     5.3889   ZX=    -8.7782
   XY=     5.2521   YY=   214.6280   ZY=    -1.6952
   XZ=    -9.9311   YZ=     0.2522   ZZ=   200.9085
   Eigenvalues:   197.0830   212.4653   226.6728
     21  C    Isotropic =   208.1013   Anisotropy =    12.5898
   XX=   216.4027   YX=     4.3837   ZX=    -2.5562
   XY=    -3.6091   YY=   206.9698   ZY=     3.2885
   XZ=     0.1677   YZ=     5.8517   ZZ=   200.9315
   Eigenvalues:   198.3886   209.4209   216.4945
     22  C    Isotropic =    96.9202   Anisotropy =    98.9899
   XX=    70.8187   YX=   -84.3352   ZX=    11.6161
   XY=  -103.0350   YY=    66.9324   ZY=    12.0676
   XZ=    23.6906   YZ=    19.6434   ZZ=   153.0096
   Eigenvalues:   -27.9290   155.7762   162.9135
     23  O    Isotropic =  -136.6792   Anisotropy =   887.5568
   XX=  -299.0429   YX=   -21.6273   ZX=  -294.2662
   XY=   -27.7016   YY=  -214.4962   ZY=   392.8530
   XZ=  -282.2739   YZ=   391.7211   ZZ=   103.5015
   Eigenvalues:  -574.1771  -290.8858   455.0253
     24  O    Isotropic =   285.0398   Anisotropy =   138.1630
   XX=   155.7285   YX=   -67.5310   ZX=   -58.0222
   XY=    59.5836   YY=   370.8697   ZY=    14.2186
   XZ=  -111.2239   YZ=   -37.3648   ZZ=   328.5210
   Eigenvalues:   120.9295   357.0413   377.1484
     25  C    Isotropic =   197.4618   Anisotropy =    57.8742
   XX=   226.3405   YX=    19.3040   ZX=     9.0277
   XY=    19.9817   YY=   185.4878   ZY=     4.4321
   XZ=     9.1576   YZ=     3.7935   ZZ=   180.5571
   Eigenvalues:   177.4473   178.8936   236.0446
     26  C    Isotropic =   209.8647   Anisotropy =    41.0210
   XX=   200.4693   YX=     1.2868   ZX=    -3.9890
   XY=     4.0454   YY=   201.0482   ZY=   -17.6042
   XZ=    -4.1342   YZ=   -17.1592   ZZ=   228.0766
   Eigenvalues:   192.4953   199.8869   237.2121
     27  C    Isotropic =   206.4928   Anisotropy =    16.9605
   XX=   217.0638   YX=    -0.5313   ZX=    -4.8448
   XY=    -1.2972   YY=   200.3155   ZY=     6.0629
   XZ=    -0.7748   YZ=     4.9914   ZZ=   202.0991
   Eigenvalues:   195.5479   206.1307   217.7998
     28  C    Isotropic =   119.9189   Anisotropy =   157.5976
   XX=    66.9449   YX=    -3.6933   ZX=   -61.6602
   XY=    -1.3423   YY=    97.7210   ZY=   -34.8749
   XZ=   -53.5474   YZ=   -34.2481   ZZ=   195.0910
   Eigenvalues:    40.6479    94.1249   224.9840
     29  C    Isotropic =   124.3452   Anisotropy =   153.4659
   XX=    90.1764   YX=    49.2245   ZX=   -43.4157
   XY=    53.0905   YY=    80.9188   ZY=   -20.0865
   XZ=   -37.3236   YZ=   -30.0666   ZZ=   201.9404
   Eigenvalues:    33.6648   112.7149   226.6558
     30  C    Isotropic =   118.6130   Anisotropy =   149.7375
   XX=   119.9090   YX=    -6.4067   ZX=   -39.0464
   XY=    -5.7734   YY=    44.6824   ZY=   -50.0495
   XZ=   -38.9232   YZ=   -45.0996   ZZ=   191.2475
   Eigenvalues:    27.2510   110.1500   218.4380
     31  C    Isotropic =   133.5759   Anisotropy =   142.2227
   XX=    99.4534   YX=    47.6769   ZX=   -33.4903
   XY=    38.7319   YY=    93.1625   ZY=   -23.8363
   XZ=   -35.6398   YZ=   -25.9341   ZZ=   208.1118
   Eigenvalues:    52.7798   119.5570   228.3910
     32  C    Isotropic =   109.2343   Anisotropy =   126.0511
   XX=    58.7521   YX=    -2.1332   ZX=   -43.3584
   XY=     5.1968   YY=   101.2050   ZY=   -24.4735
   XZ=   -42.6119   YZ=   -40.4236   ZZ=   167.7456
   Eigenvalues:    42.2186    92.2158   193.2683
     33  C    Isotropic =   121.5295   Anisotropy =   133.8874
   XX=   116.0314   YX=     6.8539   ZX=   -37.0504
   XY=     2.2215   YY=    65.8747   ZY=   -48.0561
   XZ=   -40.4119   YZ=   -32.5200   ZZ=   182.6825
   Eigenvalues:    52.3600   101.4408   210.7878
     34  N    Isotropic =   274.1225   Anisotropy =    81.6323
   XX=   295.3106   YX=    30.0609   ZX=     5.2187
   XY=    47.0238   YY=   279.7097   ZY=     1.9676
   XZ=    19.0960   YZ=     5.4627   ZZ=   247.3472
   Eigenvalues:   241.9749   251.8486   328.5440
     35  C    Isotropic =   197.7775   Anisotropy =    16.5553
   XX=   206.0490   YX=    -4.6627   ZX=     2.2505
   XY=    -7.4695   YY=   195.3738   ZY=    -5.1488
   XZ=    -5.0794   YZ=     1.8852   ZZ=   191.9097
   Eigenvalues:   190.1577   194.3604   208.8143
     36  C    Isotropic =   180.7219   Anisotropy =    45.2011
   XX=   183.6257   YX=   -12.0471   ZX=    11.0403
   XY=    -8.8568   YY=   206.7696   ZY=     7.3828
   XZ=     0.2729   YZ=    -7.1961   ZZ=   151.7703
   Eigenvalues:   150.7298   180.5798   210.8559
     37  C    Isotropic =   175.9880   Anisotropy =    57.8528
   XX=   187.8719   YX=   -20.9434   ZX=   -20.4449
   XY=   -21.8645   YY=   159.6149   ZY=    10.6218
   XZ=   -21.3560   YZ=     7.5769   ZZ=   180.4771
   Eigenvalues:   147.9380   165.4695   214.5565
     38  C    Isotropic =   213.6115   Anisotropy =    18.7502
   XX=   206.7593   YX=     0.6367   ZX=    -3.9428
   XY=    -2.3997   YY=   211.9777   ZY=    -8.6160
   XZ=    -7.8307   YZ=    -3.1163   ZZ=   222.0975
   Eigenvalues:   203.6915   211.0314   226.1117
     39  C    Isotropic =   211.7879   Anisotropy =    22.7789
   XX=   208.9786   YX=    -7.1810   ZX=    -9.2756
   XY=    -8.4265   YY=   209.5935   ZY=     6.1492
   XZ=    -8.8320   YZ=     3.7475   ZZ=   216.7915
   Eigenvalues:   200.5524   207.8374   226.9738
     40  C    Isotropic =   211.0305   Anisotropy =     8.9473
   XX=   208.6699   YX=     1.2988   ZX=    -0.2884
   XY=     0.1114   YY=   215.6771   ZY=    -3.0284
   XZ=    -0.4294   YZ=    -3.3494   ZZ=   208.7443
   Eigenvalues:   207.4951   208.6010   216.9953
     41  N    Isotropic =   227.5949   Anisotropy =    57.2634
   XX=   253.5630   YX=   -19.8226   ZX=     4.4850
   XY=   -20.2471   YY=   198.7880   ZY=   -21.6439
   XZ=     9.0875   YZ=   -21.6978   ZZ=   230.4338
   Eigenvalues:   184.4206   232.5937   265.7706
     42  C    Isotropic =   196.7290   Anisotropy =    47.0211
   XX=   185.1866   YX=    10.9932   ZX=    -0.6929
   XY=    15.1068   YY=   214.5278   ZY=    20.7046
   XZ=    -3.2317   YZ=    18.4003   ZZ=   190.4728
   Eigenvalues:   173.0529   189.0578   228.0765
     43  C    Isotropic =   221.8415   Anisotropy =    10.7683
   XX=   218.5158   YX=    -0.6042   ZX=    -9.6381
   XY=    -2.4592   YY=   227.2316   ZY=    -1.0614
   XZ=   -10.0426   YZ=    -1.4113   ZZ=   219.7771
   Eigenvalues:   209.0737   227.4304   229.0204
     44  C    Isotropic =   217.8230   Anisotropy =    20.8873
   XX=   214.4434   YX=    -6.5249   ZX=    -1.9165
   XY=   -10.8835   YY=   227.3424   ZY=    -3.2552
   XZ=    -1.8965   YZ=    -0.1322   ZZ=   211.6832
   Eigenvalues:   208.2703   213.4509   231.7479
     45  C    Isotropic =   214.2940   Anisotropy =    27.9572
   XX=   215.7638   YX=   -15.9037   ZX=   -14.4249
   XY=    -6.1277   YY=   204.8764   ZY=    -4.2527
   XZ=   -12.4215   YZ=    -8.9238   ZZ=   222.2418
   Eigenvalues:   192.2703   217.6796   232.9321
     46  C    Isotropic =   187.0439   Anisotropy =    59.0047
   XX=   178.5134   YX=     1.7637   ZX=   -10.2945
   XY=    13.5245   YY=   196.0284   ZY=   -32.1439
   XZ=    -1.5863   YZ=   -33.4175   ZZ=   186.5898
   Eigenvalues:   158.1764   176.5749   226.3803
     47  C    Isotropic =   211.9420   Anisotropy =    23.6930
   XX=   209.7411   YX=    -3.3685   ZX=    13.3542
   XY=    -4.6306   YY=   213.9046   ZY=    -5.5381
   XZ=    13.4947   YZ=    -5.4356   ZZ=   212.1802
   Eigenvalues:   197.4432   210.6455   227.7373
     48  C    Isotropic =   208.3488   Anisotropy =    10.3961
   XX=   203.9119   YX=     4.1811   ZX=     3.4402
   XY=     5.5519   YY=   208.1725   ZY=     1.8788
   XZ=     6.7686   YZ=    -5.5331   ZZ=   212.9619
   Eigenvalues:   198.7557   211.0111   215.2795
     49  C    Isotropic =    96.2189   Anisotropy =    97.7436
   XX=   115.2089   YX=    57.7332   ZX=   -57.7982
   XY=    55.8842   YY=    81.2016   ZY=    82.5057
   XZ=   -43.6364   YZ=    65.7966   ZZ=    92.2462
   Eigenvalues:   -28.0913   155.3667   161.3813
     50  O    Isotropic =  -131.4911   Anisotropy =   882.7084
   XX=   120.7516   YX=   421.6402   ZX=    95.4426
   XY=   425.6920   YY=   -79.3993   ZY=   -81.1355
   XZ=   119.0495   YZ=   -95.7353   ZZ=  -435.8255
   Eigenvalues:  -562.0007  -289.4537   456.9812
     51  O    Isotropic =   282.7788   Anisotropy =   139.1468
   XX=   365.6405   YX=   -11.1785   ZX=    42.3554
   XY=    -6.5613   YY=   367.0939   ZY=   -48.8734
   XZ=   -34.3459   YZ=    78.8824   ZZ=   115.6019
   Eigenvalues:   114.6282   358.1648   375.5433
     52  C    Isotropic =   197.2459   Anisotropy =    57.7886
   XX=   181.5409   YX=    -4.5122   ZX=    11.7369
   XY=    -4.0507   YY=   185.2723   ZY=   -19.6223
   XZ=    12.1071   YZ=   -19.1222   ZZ=   224.9245
   Eigenvalues:   177.1862   178.7799   235.7716
     53  C    Isotropic =   209.5373   Anisotropy =    42.4440
   XX=   226.1105   YX=   -17.2001   ZX=    -7.3377
   XY=   -18.6584   YY=   202.2590   ZY=     4.4554
   XZ=    -6.8749   YZ=     6.7529   ZZ=   200.2424
   Eigenvalues:   192.2453   198.5333   237.8334
     54  O    Isotropic =    28.0308   Anisotropy =   460.1340
   XX=   191.1122   YX=   -64.0971   ZX=   194.8066
   XY=   -66.3628   YY=  -134.3575   ZY=   -27.0903
   XZ=   202.8688   YZ=   -30.5457   ZZ=    27.3377
   Eigenvalues:  -148.3779  -102.3166   334.7868
     55  H    Isotropic =    25.6748   Anisotropy =    12.0103
   XX=    29.2485   YX=    -5.0761   ZX=    -2.5231
   XY=    -5.0915   YY=    25.5139   ZY=     2.0793
   XZ=    -2.5636   YZ=     1.7386   ZZ=    22.2621
   Eigenvalues:    21.3592    21.9836    33.6817
     56  H    Isotropic =    26.0527   Anisotropy =     7.0711
   XX=    26.3929   YX=     0.4096   ZX=    -3.8160
   XY=     0.3811   YY=    27.6056   ZY=    -1.4770
   XZ=    -5.2832   YZ=    -2.5417   ZZ=    24.1597
   Eigenvalues:    20.3369    27.0545    30.7668
     57  H    Isotropic =    26.6562   Anisotropy =     7.6969
   XX=    25.8325   YX=    -2.9754   ZX=    -3.8553
   XY=    -2.4392   YY=    30.3557   ZY=    -1.0975
   XZ=    -4.3562   YZ=    -0.5958   ZZ=    23.7803
   Eigenvalues:    20.0318    28.1493    31.7874
     58  H    Isotropic =    31.4490   Anisotropy =    11.3756
   XX=    38.2879   YX=     0.4369   ZX=    -3.1903
   XY=    -1.6328   YY=    29.4209   ZY=    -0.6898
   XZ=    -2.7354   YZ=     0.6473   ZZ=    26.6381
   Eigenvalues:    25.9205    29.3937    39.0327
     59  H    Isotropic =    32.2663   Anisotropy =    12.1511
   XX=    27.1745   YX=     2.8166   ZX=     1.5982
   XY=     1.9694   YY=    29.6193   ZY=    -1.9759
   XZ=    -0.3537   YZ=    -1.9536   ZZ=    40.0052
   Eigenvalues:    25.5384    30.8935    40.3670
     60  H    Isotropic =    33.2278   Anisotropy =     9.7536
   XX=    38.7486   YX=    -1.5624   ZX=     3.5897
   XY=    -3.2779   YY=    33.2442   ZY=     0.5036
   XZ=    -0.6416   YZ=     2.2490   ZZ=    27.6905
   Eigenvalues:    27.0129    32.9403    39.7302
     61  H    Isotropic =    32.4072   Anisotropy =    13.6392
   XX=    28.1250   YX=     1.4659   ZX=     2.2674
   XY=     1.4350   YY=    31.8189   ZY=     5.6633
   XZ=     1.6463   YZ=     6.1575   ZZ=    37.2775
   Eigenvalues:    27.6188    28.1027    41.5000
     62  H    Isotropic =    32.0941   Anisotropy =    19.7181
   XX=    44.9722   YX=     2.6985   ZX=     0.1990
   XY=     1.6312   YY=    27.0442   ZY=    -0.9224
   XZ=    -1.0267   YZ=     0.2903   ZZ=    24.2660
   Eigenvalues:    24.2290    26.8139    45.2395
     63  H    Isotropic =    32.2278   Anisotropy =    10.9101
   XX=    34.9064   YX=     0.9343   ZX=    -5.1042
   XY=     1.3572   YY=    29.4192   ZY=    -2.2461
   XZ=    -5.2522   YZ=    -2.3299   ZZ=    32.3578
   Eigenvalues:    27.4844    29.6977    39.5012
     64  H    Isotropic =    31.7693   Anisotropy =    15.5015
   XX=    27.7741   YX=    -1.7277   ZX=     5.7988
   XY=    -2.5859   YY=    31.2816   ZY=    -5.0213
   XZ=     5.9197   YZ=    -5.2608   ZZ=    36.2520
   Eigenvalues:    24.7416    28.4625    42.1036
     65  H    Isotropic =    32.3687   Anisotropy =    16.4759
   XX=    27.5177   YX=     3.7882   ZX=    -0.3577
   XY=     3.1816   YY=    40.9443   ZY=    -4.7456
   XZ=    -0.2901   YZ=    -4.9364   ZZ=    28.6439
   Eigenvalues:    26.0561    27.6974    43.3526
     66  H    Isotropic =    31.8875   Anisotropy =    13.9054
   XX=    36.1931   YX=    -6.4594   ZX=    -0.4202
   XY=    -6.8204   YY=    32.2767   ZY=    -0.6276
   XZ=    -0.5293   YZ=    -0.8327   ZZ=    27.1928
   Eigenvalues:    26.3813    28.1235    41.1578
     67  H    Isotropic =    31.9566   Anisotropy =    14.6797
   XX=    40.7333   YX=     3.5364   ZX=     1.2136
   XY=     3.2741   YY=    30.0677   ZY=    -1.9675
   XZ=     0.9419   YZ=    -1.8580   ZZ=    25.0687
   Eigenvalues:    24.1298    29.9969    41.7430
     68  H    Isotropic =    32.3342   Anisotropy =    13.9277
   XX=    26.5409   YX=    -0.6524   ZX=    -0.4469
   XY=    -0.6022   YY=    37.6647   ZY=     5.8039
   XZ=    -0.5500   YZ=     5.9181   ZZ=    32.7970
   Eigenvalues:    26.4968    28.8864    41.6194
     69  H    Isotropic =    32.4038   Anisotropy =    12.6520
   XX=    40.2109   YX=     0.8296   ZX=    -1.8667
   XY=     1.5239   YY=    25.2106   ZY=     0.2243
   XZ=    -2.4847   YZ=    -1.0560   ZZ=    31.7899
   Eigenvalues:    25.1094    31.2636    40.8385
     70  H    Isotropic =    32.9679   Anisotropy =    11.3957
   XX=    30.5268   YX=     0.7113   ZX=     3.6695
   XY=     3.5800   YY=    36.9292   ZY=     5.0179
   XZ=     4.2496   YZ=     3.0883   ZZ=    31.4476
   Eigenvalues:    26.8447    31.4940    40.5650
     71  H    Isotropic =    32.1519   Anisotropy =    11.1344
   XX=    30.3163   YX=    -2.9585   ZX=    -3.4167
   XY=    -2.6511   YY=    29.0605   ZY=     3.1435
   XZ=    -3.6282   YZ=     1.4067   ZZ=    37.0788
   Eigenvalues:    26.7892    30.0917    39.5748
     72  H    Isotropic =    31.9245   Anisotropy =    16.4514
   XX=    33.0786   YX=    -0.9272   ZX=     8.0268
   XY=     0.6952   YY=    27.1038   ZY=    -0.7677
   XZ=     8.7238   YZ=    -2.1441   ZZ=    35.5911
   Eigenvalues:    25.4063    27.4751    42.8921
     73  H    Isotropic =    32.0271   Anisotropy =    14.8003
   XX=    28.7115   YX=    -2.4294   ZX=    -4.9732
   XY=    -1.8658   YY=    34.4105   ZY=     5.9116
   XZ=    -4.9960   YZ=     6.6475   ZZ=    32.9594
   Eigenvalues:    24.9382    29.2492    41.8940
     74  H    Isotropic =    30.2831   Anisotropy =    11.1294
   XX=    35.0610   YX=    -4.2525   ZX=     1.7279
   XY=    -3.4898   YY=    28.5054   ZY=    -3.7529
   XZ=     1.0649   YZ=    -3.8374   ZZ=    27.2828
   Eigenvalues:    23.8263    29.3203    37.7027
     75  H    Isotropic =    31.2731   Anisotropy =    12.1972
   XX=    28.5780   YX=     0.3990   ZX=    -4.6205
   XY=     1.2250   YY=    27.5839   ZY=     0.2650
   XZ=    -4.0248   YZ=    -0.6182   ZZ=    37.6574
   Eigenvalues:    26.4319    27.9829    39.4046
     76  H    Isotropic =    30.5753   Anisotropy =     8.1749
   XX=    31.6763   YX=     2.6139   ZX=     1.9952
   XY=     3.1648   YY=    26.9780   ZY=     1.4940
   XZ=     2.6217   YZ=     2.4582   ZZ=    33.0717
   Eigenvalues:    25.5056    30.1951    36.0253
     77  H    Isotropic =    30.5398   Anisotropy =    11.9101
   XX=    31.0340   YX=     4.4842   ZX=    -1.9179
   XY=     4.1848   YY=    33.9645   ZY=    -4.0765
   XZ=    -1.3261   YZ=    -3.6102   ZZ=    26.6209
   Eigenvalues:    24.9661    28.1734    38.4799
     78  H    Isotropic =    30.5087   Anisotropy =    12.1666
   XX=    37.1120   YX=    -2.1210   ZX=    -3.5767
   XY=    -2.3935   YY=    28.0073   ZY=     1.0427
   XZ=    -3.1582   YZ=     0.5263   ZZ=    26.4067
   Eigenvalues:    25.4278    27.4784    38.6198
     79  H    Isotropic =    32.0002   Anisotropy =    10.4220
   XX=    32.0616   YX=    -0.8300   ZX=     5.1054
   XY=    -0.9651   YY=    29.3208   ZY=    -3.6993
   XZ=     2.7386   YZ=    -4.2085   ZZ=    34.6182
   Eigenvalues:    26.9033    30.1491    38.9482
     80  H    Isotropic =    30.7518   Anisotropy =    14.8570
   XX=    27.6441   YX=     3.4289   ZX=    -2.5627
   XY=     3.5996   YY=    37.5739   ZY=    -4.3776
   XZ=    -3.5215   YZ=    -4.4746   ZZ=    27.0374
   Eigenvalues:    24.1821    27.4169    40.6565
     81  H    Isotropic =    30.8784   Anisotropy =    10.9983
   XX=    30.3205   YX=    -2.1781   ZX=    -5.3248
   XY=    -1.7891   YY=    28.6383   ZY=    -1.8822
   XZ=    -6.6219   YZ=    -1.7830   ZZ=    33.6762
   Eigenvalues:    24.1739    30.2506    38.2106
     82  H    Isotropic =    30.1164   Anisotropy =     8.2796
   XX=    27.3577   YX=    -1.6120   ZX=     0.4225
   XY=    -2.6732   YY=    28.2764   ZY=    -1.5985
   XZ=     2.3064   YZ=    -2.0481   ZZ=    34.7152
   Eigenvalues:    25.6248    29.0883    35.6362
     83  H    Isotropic =    29.8904   Anisotropy =    12.6680
   XX=    27.9556   YX=    -0.1104   ZX=    -0.0145
   XY=    -1.2755   YY=    36.2485   ZY=     4.8480
   XZ=    -1.7074   YZ=     5.2582   ZZ=    25.4670
   Eigenvalues:    23.4026    27.9328    38.3357
     84  H    Isotropic =    25.7539   Anisotropy =    15.4341
   XX=    31.6898   YX=     4.5704   ZX=     1.8380
   XY=     4.6982   YY=    26.5370   ZY=     4.0189
   XZ=     4.7596   YZ=     5.2491   ZZ=    19.0350
   Eigenvalues:    16.7460    24.4725    36.0433
     85  H    Isotropic =    25.6132   Anisotropy =     6.6198
   XX=    28.9646   YX=    -2.1070   ZX=     1.3604
   XY=    -1.4485   YY=    26.8721   ZY=     1.5666
   XZ=     1.7157   YZ=     1.3852   ZZ=    21.0029
   Eigenvalues:    20.2234    26.5898    30.0264
     86  H    Isotropic =    26.5399   Anisotropy =     7.9309
   XX=    28.0023   YX=     0.8907   ZX=     2.1588
   XY=     0.6378   YY=    30.7237   ZY=     2.5421
   XZ=     2.5826   YZ=     2.5098   ZZ=    20.8936
   Eigenvalues:    19.7273    28.0652    31.8272
     87  H    Isotropic =    30.6249   Anisotropy =     6.5384
   XX=    32.2955   YX=     1.1983   ZX=     1.3864
   XY=     1.0419   YY=    28.0806   ZY=     1.7894
   XZ=     4.2528   YZ=    -0.4522   ZZ=    31.4988
   Eigenvalues:    27.8008    29.0901    34.9839
     88  H    Isotropic =    32.1257   Anisotropy =    14.1906
   XX=    37.2744   YX=    -3.6822   ZX=    -6.0703
   XY=    -3.2212   YY=    30.3028   ZY=    -0.3860
   XZ=    -7.3081   YZ=    -1.2633   ZZ=    28.7999
   Eigenvalues:    24.1304    30.6606    41.5861
     89  H    Isotropic =    32.8127   Anisotropy =     8.3972
   XX=    28.9289   YX=     2.8690   ZX=     1.4718
   XY=     2.3505   YY=    32.9231   ZY=     4.1074
   XZ=    -0.9487   YZ=     1.6372   ZZ=    36.5860
   Eigenvalues:    27.5052    32.5220    38.4108
     90  H    Isotropic =    32.3195   Anisotropy =    13.2061
   XX=    27.7851   YX=    -1.2192   ZX=     1.7157
   XY=    -1.5243   YY=    29.1207   ZY=    -2.3814
   XZ=     1.6235   YZ=    -3.6697   ZZ=    40.0528
   Eigenvalues:    26.9234    28.9116    41.1236
     91  H    Isotropic =    32.1617   Anisotropy =    15.4773
   XX=    36.1449   YX=     4.9700   ZX=    -6.1249
   XY=     4.5078   YY=    31.4695   ZY=    -3.0073
   XZ=    -6.0198   YZ=    -3.1587   ZZ=    28.8707
   Eigenvalues:    25.3983    28.6069    42.4799
     92  H    Isotropic =    30.9704   Anisotropy =    12.8692
   XX=    34.9537   YX=    -1.7725   ZX=    -5.0266
   XY=    -2.9883   YY=    30.8295   ZY=     2.9739
   XZ=    -6.2573   YZ=     4.0122   ZZ=    27.1279
   Eigenvalues:    23.5471    29.8142    39.5499
     93  H    Isotropic =    31.8882   Anisotropy =     7.1421
   XX=    30.6727   YX=    -0.5216   ZX=     3.1277
   XY=     0.2034   YY=    30.6525   ZY=     2.3225
   XZ=     2.9368   YZ=     2.1400   ZZ=    34.3396
   Eigenvalues:    28.2029    30.8122    36.6496
     94  H    Isotropic =    31.2591   Anisotropy =    15.1885
   XX=    33.7766   YX=    -5.9859   ZX=     2.1481
   XY=    -6.4725   YY=    33.4202   ZY=    -4.7630
   XZ=     2.3353   YZ=    -4.2961   ZZ=    26.5804
   Eigenvalues:    24.2221    28.1704    41.3848
     95  H    Isotropic =    32.2085   Anisotropy =    16.2170
   XX=    28.4007   YX=     3.9539   ZX=     0.3836
   XY=     3.4668   YY=    38.8673   ZY=     5.9546
   XZ=     0.6730   YZ=     7.0144   ZZ=    29.3574
   Eigenvalues:    25.4189    28.1866    43.0198
     96  H    Isotropic =    31.9778   Anisotropy =    12.9008
   XX=    28.2398   YX=    -2.8787   ZX=     2.3417
   XY=    -3.2753   YY=    30.3761   ZY=    -4.4004
   XZ=     2.5214   YZ=    -4.6329   ZZ=    37.3174
   Eigenvalues:    25.9959    29.3591    40.5783
     97  H    Isotropic =    32.2964   Anisotropy =    15.2995
   XX=    33.8830   YX=     6.2911   ZX=    -2.8917
   XY=     5.4847   YY=    37.5637   ZY=    -2.2089
   XZ=    -2.4950   YZ=    -1.7789   ZZ=    25.4424
   Eigenvalues:    24.6485    29.7446    42.4960
     98  H    Isotropic =    33.3127   Anisotropy =    10.1563
   XX=    30.7578   YX=    -0.0779   ZX=    -2.1583
   XY=     1.1701   YY=    35.1142   ZY=    -6.2956
   XZ=    -0.7452   YZ=    -4.2293   ZZ=    34.0661
   Eigenvalues:    28.9863    30.8682    40.0836
     99  H    Isotropic =    32.7583   Anisotropy =    11.4038
   XX=    35.7326   YX=    -0.6719   ZX=     4.4622
   XY=     2.7013   YY=    27.2711   ZY=     2.9318
   XZ=     3.8850   YZ=     3.4995   ZZ=    35.2712
   Eigenvalues:    26.1153    31.7987    40.3608
    100  H    Isotropic =    31.5429   Anisotropy =    11.3031
   XX=    34.1050   YX=    -0.9465   ZX=    -4.6525
   XY=     0.0336   YY=    27.2586   ZY=    -0.1269
   XZ=    -5.8957   YZ=     2.3783   ZZ=    33.2650
   Eigenvalues:    26.9701    28.5803    39.0783
    101  H    Isotropic =    31.1650   Anisotropy =    17.3752
   XX=    40.8341   YX=     3.7537   ZX=     0.8131
   XY=     6.1928   YY=    29.2522   ZY=     2.1374
   XZ=    -0.5380   YZ=     3.8205   ZZ=    23.4086
   Eigenvalues:    21.9599    28.7865    42.7484
    102  H    Isotropic =    31.6000   Anisotropy =     8.7386
   XX=    30.2412   YX=    -2.0336   ZX=     0.2161
   XY=    -2.5357   YY=    29.4966   ZY=     3.6824
   XZ=     0.2159   YZ=     4.6955   ZZ=    35.0623
   Eigenvalues:    26.1400    31.2344    37.4258
    103  H    Isotropic =    32.0977   Anisotropy =    15.1382
   XX=    36.1088   YX=     6.9710   ZX=     1.6969
   XY=     6.0276   YY=    35.0010   ZY=    -0.4843
   XZ=     2.3623   YZ=     0.1254   ZZ=    25.1833
   Eigenvalues:    24.5681    29.5352    42.1898
    104  H    Isotropic =    31.2127   Anisotropy =    12.8342
   XX=    39.7314   YX=    -0.7944   ZX=    -0.9808
   XY=     0.1154   YY=    27.6289   ZY=    -1.6580
   XZ=    -0.3031   YZ=    -0.4596   ZZ=    26.2779
   Eigenvalues:    25.6600    28.2093    39.7689
    105  H    Isotropic =    30.5911   Anisotropy =    11.7930
   XX=    29.9986   YX=     1.2450   ZX=     5.4579
   XY=     1.9677   YY=    28.6468   ZY=     2.5946
   XZ=     6.0826   YZ=     2.4731   ZZ=    33.1279
   Eigenvalues:    25.5550    27.7652    38.4531
    106  H    Isotropic =    30.5307   Anisotropy =    12.0974
   XX=    30.4659   YX=    -5.7816   ZX=     2.4566
   XY=    -5.8990   YY=    32.5002   ZY=    -1.7605
   XZ=     3.3212   YZ=    -2.3324   ZZ=    28.6259
   Eigenvalues:    25.2268    27.7697    38.5956
    107  H    Isotropic =    30.6823   Anisotropy =     7.6100
   XX=    31.4628   YX=     1.8658   ZX=    -1.9065
   XY=     1.0354   YY=    27.8630   ZY=    -3.8089
   XZ=    -1.0615   YZ=    -3.8290   ZZ=    32.7210
   Eigenvalues:    25.7077    30.5836    35.7556
    108  H    Isotropic =    30.9112   Anisotropy =    11.0037
   XX=    37.9261   YX=    -0.5445   ZX=     2.5213
   XY=    -0.8449   YY=    29.1859   ZY=     2.4618
   XZ=     1.4354   YZ=     2.4862   ZZ=    25.6218
   Eigenvalues:    24.0436    30.4431    38.2471
    109  H    Isotropic =    30.6997   Anisotropy =    14.5269
   XX=    29.7332   YX=    -5.1596   ZX=     2.4271
   XY=    -4.9375   YY=    37.3748   ZY=    -2.0344
   XZ=     1.7348   YZ=    -2.0722   ZZ=    24.9910
   Eigenvalues:    24.2049    27.5098    40.3842
    110  H    Isotropic =    31.8952   Anisotropy =    11.9013
   XX=    31.1541   YX=    -3.5171   ZX=    -3.3722
   XY=    -2.9272   YY=    29.9854   ZY=     3.6719
   XZ=    -5.2836   YZ=     3.5084   ZZ=    34.5462
   Eigenvalues:    27.2949    28.5614    39.8294
 End of Minotr F.D. properties file   721 does not exist.
 End of Minotr F.D. properties file   722 does not exist.
 End of Minotr F.D. properties file   788 does not exist.
 Hyperfine terms turned off by default for NAtoms > 100.

 **********************************************************************

            Population analysis using the SCF Density.

 **********************************************************************

 Orbital symmetries:
       Occupied  (A) (A) (A) (A) (A) (A) (A) (A) (A) (A) (A) (A)
                 (A) (A) (A) (A) (A) (A) (A) (A) (A) (A) (A) (A)
                 (A) (A) (A) (A) (A) (A) (A) (A) (A) (A) (A) (A)
                 (A) (A) (A) (A) (A) (A) (A) (A) (A) (A) (A) (A)
                 (A) (A) (A) (A) (A) (A) (A) (A) (A) (A) (A) (A)
                 (A) (A) (A) (A) (A) (A) (A) (A) (A) (A) (A) (A)
                 (A) (A) (A) (A) (A) (A) (A) (A) (A) (A) (A) (A)
                 (A) (A) (A) (A) (A) (A) (A) (A) (A) (A) (A) (A)
                 (A) (A) (A) (A) (A) (A) (A) (A) (A) (A) (A) (A)
                 (A) (A) (A) (A) (A) (A) (A) (A) (A) (A) (A) (A)
                 (A) (A) (A) (A) (A) (A) (A) (A) (A) (A) (A) (A)
                 (A) (A) (A) (A) (A) (A) (A) (A) (A) (A) (A) (A)
                 (A) (A) (A) (A) (A) (A) (A) (A) (A) (A) (A) (A)
                 (A) (A) (A) (A) (A) (A) (A) (A) (A) (A) (A) (A)
                 (A) (A) (A) (A) (A) (A) (A) (A) (A) (A) (A) (A)
                 (A) (A) (A) (A) (A) (A) (A) (A) (A) (A) (A) (A)
                 (A) (A) (A) (A) (A)
       Virtual   (A) (A) (A) (A) (A) (A) (A) (A) (A) (A) (A) (A)
                 (A) (A) (A) (A) (A) (A) (A) (A) (A) (A) (A) (A)
                 (A) (A) (A) (A) (A) (A) (A) (A) (A) (A) (A) (A)
                 (A) (A) (A) (A) (A) (A) (A) (A) (A) (A) (A) (A)
                 (A) (A) (A) (A) (A) (A) (A) (A) (A) (A) (A) (A)
                 (A) (A) (A) (A) (A) (A) (A) (A) (A) (A) (A) (A)
                 (A) (A) (A) (A) (A) (A) (A) (A) (A) (A) (A) (A)
                 (A) (A) (A) (A) (A) (A) (A) (A) (A) (A) (A) (A)
                 (A) (A) (A) (A) (A) (A) (A) (A) (A) (A) (A) (A)
                 (A) (A) (A) (A) (A) (A) (A) (A) (A) (A) (A) (A)
                 (A) (A) (A) (A) (A) (A) (A) (A) (A)
 The electronic state is 1-A.
 Alpha  occ. eigenvalues --  -20.31449 -20.29298 -20.25455 -20.23288 -19.92205
 Alpha  occ. eigenvalues --  -15.48577 -15.34332 -15.32591 -15.28646 -11.17472
 Alpha  occ. eigenvalues --  -11.15130 -11.11185 -11.10570 -11.09636 -11.09541
 Alpha  occ. eigenvalues --  -11.09027 -11.08862 -11.08467 -11.08182 -11.07515
 Alpha  occ. eigenvalues --  -11.07494 -11.07396 -11.07083 -11.06163 -11.05899
 Alpha  occ. eigenvalues --  -11.05839 -11.05689 -11.05403 -11.05272 -11.05242
 Alpha  occ. eigenvalues --  -11.05184 -11.05074 -11.04980 -11.04888 -11.04807
 Alpha  occ. eigenvalues --  -11.04367 -11.04195 -11.03567 -11.02609 -11.02547
 Alpha  occ. eigenvalues --  -11.02414 -11.02352 -11.02203 -11.02153 -11.02096
 Alpha  occ. eigenvalues --  -11.02047 -11.02008 -11.01962 -11.01738 -11.01467
 Alpha  occ. eigenvalues --  -11.01132 -11.01125 -11.00809 -11.00728  -1.38670
 Alpha  occ. eigenvalues --   -1.36580  -1.28528  -1.28385  -1.26238  -1.21767
 Alpha  occ. eigenvalues --   -1.20391  -1.17934  -1.12228  -1.09236  -1.07966
 Alpha  occ. eigenvalues --   -1.07228  -1.06355  -1.03956  -1.03415  -1.00894
 Alpha  occ. eigenvalues --   -0.99784  -0.98695  -0.97823  -0.97138  -0.96792
 Alpha  occ. eigenvalues --   -0.95150  -0.94682  -0.93813  -0.92875  -0.92742
 Alpha  occ. eigenvalues --   -0.92395  -0.90900  -0.90285  -0.89301  -0.87906
 Alpha  occ. eigenvalues --   -0.86428  -0.84276  -0.82721  -0.82289  -0.80950
 Alpha  occ. eigenvalues --   -0.80108  -0.79417  -0.78708  -0.78102  -0.75916
 Alpha  occ. eigenvalues --   -0.75632  -0.75030  -0.73327  -0.72910  -0.72133
 Alpha  occ. eigenvalues --   -0.71448  -0.69742  -0.69249  -0.68279  -0.66810
 Alpha  occ. eigenvalues --   -0.65673  -0.64889  -0.64182  -0.64086  -0.63263
 Alpha  occ. eigenvalues --   -0.62416  -0.62021  -0.61965  -0.61080  -0.60973
 Alpha  occ. eigenvalues --   -0.60068  -0.59775  -0.59012  -0.58783  -0.58695
 Alpha  occ. eigenvalues --   -0.58627  -0.58098  -0.57662  -0.57207  -0.56661
 Alpha  occ. eigenvalues --   -0.56543  -0.56280  -0.56084  -0.55940  -0.55598
 Alpha  occ. eigenvalues --   -0.55435  -0.55211  -0.54834  -0.54095  -0.53901
 Alpha  occ. eigenvalues --   -0.53293  -0.52961  -0.52638  -0.52287  -0.51923
 Alpha  occ. eigenvalues --   -0.51765  -0.51556  -0.50838  -0.50468  -0.50310
 Alpha  occ. eigenvalues --   -0.49958  -0.49533  -0.49360  -0.49129  -0.48825
 Alpha  occ. eigenvalues --   -0.48410  -0.48100  -0.47992  -0.47506  -0.46998
 Alpha  occ. eigenvalues --   -0.46816  -0.46240  -0.45740  -0.45423  -0.45120
 Alpha  occ. eigenvalues --   -0.44916  -0.44879  -0.44480  -0.43863  -0.43547
 Alpha  occ. eigenvalues --   -0.43070  -0.42833  -0.42518  -0.42335  -0.42125
 Alpha  occ. eigenvalues --   -0.42052  -0.41692  -0.41016  -0.40557  -0.40167
 Alpha  occ. eigenvalues --   -0.39877  -0.39538  -0.39403  -0.38543  -0.38049
 Alpha  occ. eigenvalues --   -0.36522  -0.36290  -0.35877  -0.34995  -0.34478
 Alpha  occ. eigenvalues --   -0.34071  -0.33001  -0.32792  -0.31995  -0.30843
 Alpha  occ. eigenvalues --   -0.27423  -0.26244  -0.25897  -0.21638  -0.19940
 Alpha  occ. eigenvalues --   -0.15855  -0.15597
 Alpha virt. eigenvalues --    0.26555   0.27329   0.27962   0.29295   0.29606
 Alpha virt. eigenvalues --    0.31916   0.46060   0.46593   0.48352   0.49477
 Alpha virt. eigenvalues --    0.49622   0.49930   0.50554   0.51934   0.52564
 Alpha virt. eigenvalues --    0.53409   0.53851   0.55289   0.55367   0.55826
 Alpha virt. eigenvalues --    0.57332   0.58000   0.58289   0.58643   0.58996
 Alpha virt. eigenvalues --    0.59105   0.59566   0.59608   0.60515   0.61217
 Alpha virt. eigenvalues --    0.61908   0.62078   0.62469   0.62591   0.63454
 Alpha virt. eigenvalues --    0.63603   0.63683   0.64028   0.64323   0.64783
 Alpha virt. eigenvalues --    0.64875   0.65015   0.65265   0.65623   0.66240
 Alpha virt. eigenvalues --    0.66389   0.66565   0.66729   0.67006   0.67522
 Alpha virt. eigenvalues --    0.67565   0.67901   0.68652   0.68729   0.69023
 Alpha virt. eigenvalues --    0.69141   0.69319   0.69493   0.69750   0.69995
 Alpha virt. eigenvalues --    0.70266   0.70604   0.70669   0.70958   0.71118
 Alpha virt. eigenvalues --    0.71514   0.72022   0.72274   0.72894   0.72972
 Alpha virt. eigenvalues --    0.73207   0.73307   0.73729   0.73797   0.74040
 Alpha virt. eigenvalues --    0.74392   0.74633   0.74943   0.75168   0.75460
 Alpha virt. eigenvalues --    0.75782   0.75986   0.76035   0.76222   0.76449
 Alpha virt. eigenvalues --    0.76769   0.77327   0.77540   0.77612   0.77975
 Alpha virt. eigenvalues --    0.78214   0.78406   0.78552   0.79257   0.79388
 Alpha virt. eigenvalues --    0.79507   0.79929   0.80371   0.80827   0.81047
 Alpha virt. eigenvalues --    0.81351   0.81766   0.81861   0.82426   0.82667
 Alpha virt. eigenvalues --    0.83357   0.83675   0.84349   0.84659   0.85551
 Alpha virt. eigenvalues --    0.86518   0.86846   0.87116   0.87277   0.87879
 Alpha virt. eigenvalues --    0.88848   0.90280   0.90672   0.92200   0.94023
 Alpha virt. eigenvalues --    0.94724   0.96159   0.98445   1.00446   1.02578
 Alpha virt. eigenvalues --    1.10737   1.11859   1.15677   1.16801
          Condensed to atoms (all electrons):
 Mulliken charges:
               1
     1  C   -0.076403
     2  C   -0.000818
     3  C   -0.063910
     4  C   -0.090814
     5  C    0.089883
     6  C   -0.011991
     7  N   -0.282967
     8  C    0.015359
     9  C    0.129411
    10  C    0.037349
    11  C   -0.114235
    12  C   -0.111336
    13  C    0.043940
    14  N   -0.293595
    15  C   -0.012622
    16  C   -0.094177
    17  C   -0.102682
    18  C   -0.099246
    19  C   -0.013771
    20  C   -0.104514
    21  C   -0.063978
    22  C    0.317842
    23  O   -0.274545
    24  O   -0.256478
    25  C   -0.055329
    26  C   -0.078490
    27  C   -0.109657
    28  C    0.001950
    29  C   -0.075243
    30  C   -0.060084
    31  C   -0.090002
    32  C    0.089538
    33  C   -0.019993
    34  N   -0.285745
    35  C    0.014269
    36  C    0.128684
    37  C    0.034067
    38  C   -0.115516
    39  C   -0.103944
    40  C    0.032463
    41  N   -0.074874
    42  C   -0.008317
    43  C   -0.102038
    44  C   -0.102169
    45  C   -0.120086
    46  C   -0.014063
    47  C   -0.111128
    48  C   -0.065951
    49  C    0.321227
    50  O   -0.278791
    51  O   -0.254443
    52  C   -0.055416
    53  C   -0.079101
    54  O   -0.457523
    55  H    0.061226
    56  H    0.054499
    57  H    0.057711
    58  H    0.060105
    59  H    0.046136
    60  H    0.050506
    61  H    0.043025
    62  H    0.062186
    63  H    0.045148
    64  H    0.056789
    65  H    0.048089
    66  H    0.052060
    67  H    0.061885
    68  H    0.045847
    69  H    0.063924
    70  H    0.055527
    71  H    0.039693
    72  H    0.059676
    73  H    0.045956
    74  H    0.078833
    75  H    0.061328
    76  H    0.073759
    77  H    0.075212
    78  H    0.070758
    79  H    0.053205
    80  H    0.070183
    81  H    0.075869
    82  H    0.060157
    83  H    0.057717
    84  H    0.076719
    85  H    0.057665
    86  H    0.058962
    87  H    0.092038
    88  H    0.053614
    89  H    0.057445
    90  H    0.057024
    91  H    0.051867
    92  H    0.086775
    93  H    0.061177
    94  H    0.076233
    95  H    0.060159
    96  H    0.064102
    97  H    0.055399
    98  H    0.073087
    99  H    0.070725
   100  H    0.074168
   101  H    0.093703
   102  H    0.064950
   103  H    0.056271
   104  H    0.066991
   105  H    0.073302
   106  H    0.078764
   107  H    0.075877
   108  H    0.076575
   109  H    0.072990
   110  H    0.056415
 Sum of Mulliken charges =  -0.00000
 Mulliken charges with hydrogens summed into heavy atoms:
               1
     1  C   -0.015177
     2  C   -0.000818
     3  C   -0.009411
     4  C   -0.033103
     5  C    0.089883
     6  C   -0.011991
     7  N   -0.282967
     8  C    0.015359
     9  C    0.129411
    10  C    0.097454
    11  C   -0.017593
    12  C   -0.006125
    13  C    0.043940
    14  N   -0.293595
    15  C    0.089315
    16  C    0.005972
    17  C    0.005050
    18  C    0.020206
    19  C    0.085597
    20  C    0.020276
    21  C   -0.002650
    22  C    0.317842
    23  O   -0.274545
    24  O   -0.256478
    25  C    0.164399
    26  C    0.120767
    27  C    0.008217
    28  C    0.001950
    29  C    0.001476
    30  C   -0.002419
    31  C   -0.031040
    32  C    0.089538
    33  C   -0.019993
    34  N   -0.285745
    35  C    0.014269
    36  C    0.128684
    37  C    0.126105
    38  C   -0.004457
    39  C    0.004947
    40  C    0.032463
    41  N   -0.074874
    42  C    0.139634
    43  C    0.034354
    44  C    0.017331
    45  C    0.023725
    46  C    0.153808
    47  C    0.010093
    48  C    0.001039
    49  C    0.321227
    50  O   -0.278791
    51  O   -0.254443
    52  C    0.172527
    53  C    0.126880
    54  O   -0.457523
 Electronic spatial extent (au):  <R**2>=          37592.7665
 Charge=             -0.0000 electrons
 Dipole moment (field-independent basis, Debye):
    X=              6.3358    Y=             -0.7350    Z=              1.7962  Tot=              6.6264
 Quadrupole moment (field-independent basis, Debye-Ang):
   XX=           -284.7792   YY=           -297.4061   ZZ=           -294.1061
   XY=             10.0157   XZ=             -8.3115   YZ=              0.0691
 Traceless Quadrupole moment (field-independent basis, Debye-Ang):
   XX=              7.3179   YY=             -5.3090   ZZ=             -2.0089
   XY=             10.0157   XZ=             -8.3115   YZ=              0.0691
 Octapole moment (field-independent basis, Debye-Ang**2):
  XXX=            239.3436  YYY=              8.1272  ZZZ=             34.4168  XYY=             38.1448
  XXY=            -64.2007  XXZ=             60.7656  XZZ=            -18.1139  YZZ=             -9.0695
  YYZ=             23.4666  XYZ=            -14.5884
 Hexadecapole moment (field-independent basis, Debye-Ang**3):
 XXXX=         -32469.8531 YYYY=          -8891.4465 ZZZZ=          -4429.1916 XXXY=            571.4679
 XXXZ=           -135.5864 YYYX=             30.5322 YYYZ=            -15.3991 ZZZX=            123.8177
 ZZZY=           -113.9089 XXYY=          -6950.1003 XXZZ=          -6062.2187 YYZZ=          -2227.7401
 XXYZ=           -149.3641 YYXZ=             -7.8196 ZZXY=           -104.9050
 N-N= 8.161011608646D+03 E-N=-2.169913301748D+04  KE= 2.279155459477D+03
 ******************************Gaussian NBO Version 3.1******************************
             N A T U R A L   A T O M I C   O R B I T A L   A N D
          N A T U R A L   B O N D   O R B I T A L   A N A L Y S I S
 ******************************Gaussian NBO Version 3.1******************************
       /RESON  / : Allow strongly delocalized NBO set
       /NLMO   / : Form Natural Localized Molecular Orbitals
       /NMR /    : Analyze NMR Sheilding Tensor 

 Analyzing the SCF density

 Job title: pleiokomenine_C_1a                                              

 Storage needed:    355564 in NPA,    438187 in NBO,   2133784 in NLMO ( 104796000 available)
 GSVD:  LWork=     -108884 too small for GESVD, short by      536270 words or      536270 for optimal perf.


 NATURAL POPULATIONS:  Natural atomic orbital occupancies 
                                                          
   NAO  Atom  No  lang   Type(AO)    Occupancy      Energy
 ----------------------------------------------------------
     1    C    1  S      Cor( 1S)     1.99993     -10.93629
     2    C    1  S      Val( 2S)     1.07920      -0.16828
     3    C    1  px     Val( 2p)     1.00214       0.09654
     4    C    1  py     Val( 2p)     0.98293       0.14283
     5    C    1  pz     Val( 2p)     0.99511       0.10647
 
     6    C    2  S      Cor( 1S)     1.99990     -10.94757
     7    C    2  S      Val( 2S)     1.07757      -0.17535
     8    C    2  px     Val( 2p)     0.96387       0.11755
     9    C    2  py     Val( 2p)     0.96840       0.15959
    10    C    2  pz     Val( 2p)     0.97756       0.11334
 
    11    C    3  S      Cor( 1S)     1.99994     -10.93935
    12    C    3  S      Val( 2S)     1.08295      -0.17399
    13    C    3  px     Val( 2p)     0.98758       0.10408
    14    C    3  py     Val( 2p)     0.98237       0.14179
    15    C    3  pz     Val( 2p)     0.98306       0.10998
 
    16    C    4  S      Cor( 1S)     1.99993     -10.93270
    17    C    4  S      Val( 2S)     1.07180      -0.16511
    18    C    4  px     Val( 2p)     1.01394       0.09329
    19    C    4  py     Val( 2p)     0.98632       0.14616
    20    C    4  pz     Val( 2p)     1.01609       0.09778
 
    21    C    5  S      Cor( 1S)     1.99985     -10.97897
    22    C    5  S      Val( 2S)     1.06180      -0.17739
    23    C    5  px     Val( 2p)     0.90546       0.11705
    24    C    5  py     Val( 2p)     0.97499       0.14783
    25    C    5  pz     Val( 2p)     0.94401       0.10618
 
    26    C    6  S      Cor( 1S)     1.99990     -10.93796
    27    C    6  S      Val( 2S)     1.08535      -0.18010
    28    C    6  px     Val( 2p)     0.98127       0.11982
    29    C    6  py     Val( 2p)     0.96750       0.13354
    30    C    6  pz     Val( 2p)     0.98663       0.11836
 
    31    N    7  S      Cor( 1S)     1.99998     -15.25883
    32    N    7  S      Val( 2S)     1.40870      -0.58507
    33    N    7  px     Val( 2p)     1.57887      -0.17264
    34    N    7  py     Val( 2p)     1.10874       0.00793
    35    N    7  pz     Val( 2p)     1.17568      -0.00848
 
    36    C    8  S      Cor( 1S)     1.99996     -10.99214
    37    C    8  S      Val( 2S)     1.10714      -0.21723
    38    C    8  px     Val( 2p)     0.98077       0.08742
    39    C    8  py     Val( 2p)     0.95525       0.12936
    40    C    8  pz     Val( 2p)     0.94160       0.11860
 
    41    C    9  S      Cor( 1S)     1.99996     -11.03775
    42    C    9  S      Val( 2S)     1.11350      -0.24454
    43    C    9  px     Val( 2p)     0.93730       0.09380
    44    C    9  py     Val( 2p)     0.82419       0.14745
    45    C    9  pz     Val( 2p)     0.95156       0.09303
 
    46    C   10  S      Cor( 1S)     1.99994     -10.99458
    47    C   10  S      Val( 2S)     1.09497      -0.19673
    48    C   10  px     Val( 2p)     0.95646       0.12953
    49    C   10  py     Val( 2p)     0.94718       0.10901
    50    C   10  pz     Val( 2p)     0.93236       0.10651
 
    51    C   11  S      Cor( 1S)     1.99994     -10.96662
    52    C   11  S      Val( 2S)     1.10391      -0.20117
    53    C   11  px     Val( 2p)     0.99151       0.09778
    54    C   11  py     Val( 2p)     0.98734       0.09905
    55    C   11  pz     Val( 2p)     1.00056       0.09643
 
    56    C   12  S      Cor( 1S)     1.99996     -10.95792
    57    C   12  S      Val( 2S)     1.08843      -0.17818
    58    C   12  px     Val( 2p)     1.01565       0.10316
    59    C   12  py     Val( 2p)     0.97501       0.11073
    60    C   12  pz     Val( 2p)     1.00342       0.10477
 
    61    C   13  S      Cor( 1S)     1.99998     -10.98602
    62    C   13  S      Val( 2S)     1.09971      -0.20218
    63    C   13  px     Val( 2p)     0.93990       0.13095
    64    C   13  py     Val( 2p)     0.95197       0.12625
    65    C   13  pz     Val( 2p)     0.94238       0.13109
 
    66    N   14  S      Cor( 1S)     1.99999     -15.21716
    67    N   14  S      Val( 2S)     1.41918      -0.56288
    68    N   14  px     Val( 2p)     1.57127      -0.14468
    69    N   14  py     Val( 2p)     1.08130       0.05415
    70    N   14  pz     Val( 2p)     1.21156      -0.00644
 
    71    C   15  S      Cor( 1S)     1.99994     -10.99212
    72    C   15  S      Val( 2S)     1.07003      -0.17298
    73    C   15  px     Val( 2p)     1.00001       0.10737
    74    C   15  py     Val( 2p)     0.90848       0.11824
    75    C   15  pz     Val( 2p)     0.97951       0.10481
 
    76    C   16  S      Cor( 1S)     1.99996     -10.96130
    77    C   16  S      Val( 2S)     1.08392      -0.17418
    78    C   16  px     Val( 2p)     1.01338       0.10873
    79    C   16  py     Val( 2p)     0.98813       0.11257
    80    C   16  pz     Val( 2p)     0.97146       0.11655
 
    81    C   17  S      Cor( 1S)     1.99995     -10.95930
    82    C   17  S      Val( 2S)     1.09070      -0.17797
    83    C   17  px     Val( 2p)     1.01677       0.10611
    84    C   17  py     Val( 2p)     0.97682       0.11524
    85    C   17  pz     Val( 2p)     0.98320       0.11527
 
    86    C   18  S      Cor( 1S)     1.99994     -10.96440
    87    C   18  S      Val( 2S)     1.09331      -0.18525
    88    C   18  px     Val( 2p)     1.00193       0.10583
    89    C   18  py     Val( 2p)     0.99825       0.10650
    90    C   18  pz     Val( 2p)     0.97251       0.09945
 
    91    C   19  S      Cor( 1S)     1.99995     -10.99232
    92    C   19  S      Val( 2S)     1.07104      -0.17597
    93    C   19  px     Val( 2p)     1.00801       0.09763
    94    C   19  py     Val( 2p)     0.92344       0.10236
    95    C   19  pz     Val( 2p)     0.95773       0.11797
 
    96    C   20  S      Cor( 1S)     1.99992     -10.96606
    97    C   20  S      Val( 2S)     1.10209      -0.19477
    98    C   20  px     Val( 2p)     0.99514       0.09955
    99    C   20  py     Val( 2p)     0.95149       0.11398
   100    C   20  pz     Val( 2p)     1.01834       0.10223
 
   101    C   21  S      Cor( 1S)     1.99994     -10.99635
   102    C   21  S      Val( 2S)     1.11398      -0.22840
   103    C   21  px     Val( 2p)     0.96508       0.09523
   104    C   21  py     Val( 2p)     0.98959       0.08228
   105    C   21  pz     Val( 2p)     1.01140       0.08016
 
   106    C   22  S      Cor( 1S)     1.99991     -11.09851
   107    C   22  S      Val( 2S)     1.05656      -0.24831
   108    C   22  px     Val( 2p)     0.90486       0.10948
   109    C   22  py     Val( 2p)     0.79670       0.13738
   110    C   22  pz     Val( 2p)     0.84157       0.06801
 
   111    O   23  S      Cor( 1S)     1.99999     -20.08532
   112    O   23  S      Val( 2S)     1.80836      -1.04443
   113    O   23  px     Val( 2p)     1.61358      -0.21296
   114    O   23  py     Val( 2p)     1.57721      -0.20684
   115    O   23  pz     Val( 2p)     1.30941      -0.11859
 
   116    O   24  S      Cor( 1S)     1.99999     -20.20243
   117    O   24  S      Val( 2S)     1.72969      -1.01534
   118    O   24  px     Val( 2p)     1.37248      -0.15499
   119    O   24  py     Val( 2p)     1.44123      -0.18196
   120    O   24  pz     Val( 2p)     1.72484      -0.31067
 
   121    C   25  S      Cor( 1S)     1.99984     -11.03571
   122    C   25  S      Val( 2S)     1.07648      -0.21704
   123    C   25  px     Val( 2p)     0.84378       0.09203
   124    C   25  py     Val( 2p)     1.01663       0.04870
   125    C   25  pz     Val( 2p)     1.02824       0.05210
 
   126    C   26  S      Cor( 1S)     1.99992     -11.00659
   127    C   26  S      Val( 2S)     1.06494      -0.18685
   128    C   26  px     Val( 2p)     1.03317       0.06926
   129    C   26  py     Val( 2p)     1.02339       0.06464
   130    C   26  pz     Val( 2p)     0.89483       0.10668
 
   131    C   27  S      Cor( 1S)     1.99995     -10.97875
   132    C   27  S      Val( 2S)     1.08280      -0.18369
   133    C   27  px     Val( 2p)     0.97880       0.10157
   134    C   27  py     Val( 2p)     1.02541       0.08941
   135    C   27  pz     Val( 2p)     0.99951       0.09475
 
   136    C   28  S      Cor( 1S)     1.99990     -10.95618
   137    C   28  S      Val( 2S)     1.07870      -0.18283
   138    C   28  px     Val( 2p)     0.94647       0.15496
   139    C   28  py     Val( 2p)     0.96036       0.16818
   140    C   28  pz     Val( 2p)     0.99827       0.04565
 
   141    C   29  S      Cor( 1S)     1.99992     -10.94569
   142    C   29  S      Val( 2S)     1.08143      -0.17807
   143    C   29  px     Val( 2p)     0.98296       0.14023
   144    C   29  py     Val( 2p)     0.98841       0.14490
   145    C   29  pz     Val( 2p)     1.00273       0.03477
 
   146    C   30  S      Cor( 1S)     1.99994     -10.94955
   147    C   30  S      Val( 2S)     1.08479      -0.18402
   148    C   30  px     Val( 2p)     0.97022       0.14879
   149    C   30  py     Val( 2p)     0.97763       0.14730
   150    C   30  pz     Val( 2p)     0.99834       0.03420
 
   151    C   31  S      Cor( 1S)     1.99993     -10.94309
   152    C   31  S      Val( 2S)     1.07207      -0.17570
   153    C   31  px     Val( 2p)     0.99319       0.13541
   154    C   31  py     Val( 2p)     0.97654       0.15063
   155    C   31  pz     Val( 2p)     1.04579       0.02123
 
   156    C   32  S      Cor( 1S)     1.99985     -10.99161
   157    C   32  S      Val( 2S)     1.05909      -0.18791
   158    C   32  px     Val( 2p)     0.89502       0.14949
   159    C   32  py     Val( 2p)     0.97626       0.14553
   160    C   32  pz     Val( 2p)     0.95624       0.03582
 
   161    C   33  S      Cor( 1S)     1.99990     -10.94972
   162    C   33  S      Val( 2S)     1.07982      -0.19055
   163    C   33  px     Val( 2p)     0.98196       0.15146
   164    C   33  py     Val( 2p)     0.95434       0.13264
   165    C   33  pz     Val( 2p)     1.01782       0.04027
 
   166    N   34  S      Cor( 1S)     1.99998     -15.27576
   167    N   34  S      Val( 2S)     1.40600      -0.60140
   168    N   34  px     Val( 2p)     1.06120       0.02140
   169    N   34  py     Val( 2p)     1.08061       0.00210
   170    N   34  pz     Val( 2p)     1.72628      -0.25206
 
   171    C   35  S      Cor( 1S)     1.99996     -11.02124
   172    C   35  S      Val( 2S)     1.10387      -0.24397
   173    C   35  px     Val( 2p)     0.95738       0.07152
   174    C   35  py     Val( 2p)     0.96005       0.09516
   175    C   35  pz     Val( 2p)     0.96616       0.07563
 
   176    C   36  S      Cor( 1S)     1.99996     -11.06094
   177    C   36  S      Val( 2S)     1.11021      -0.26547
   178    C   36  px     Val( 2p)     0.94141       0.07251
   179    C   36  py     Val( 2p)     0.83289       0.11992
   180    C   36  pz     Val( 2p)     0.94360       0.06886
 
   181    C   37  S      Cor( 1S)     1.99990     -11.03708
   182    C   37  S      Val( 2S)     1.12107      -0.26088
   183    C   37  px     Val( 2p)     0.89525       0.09113
   184    C   37  py     Val( 2p)     0.95138       0.06296
   185    C   37  pz     Val( 2p)     0.96701       0.06066
 
   186    C   38  S      Cor( 1S)     1.99994     -10.99023
   187    C   38  S      Val( 2S)     1.10459      -0.22525
   188    C   38  px     Val( 2p)     1.02019       0.07124
   189    C   38  py     Val( 2p)     0.98000       0.07723
   190    C   38  pz     Val( 2p)     0.98141       0.07394
 
   191    C   39  S      Cor( 1S)     1.99995     -10.99125
   192    C   39  S      Val( 2S)     1.09404      -0.21498
   193    C   39  px     Val( 2p)     1.01131       0.07271
   194    C   39  py     Val( 2p)     0.97628       0.07882
   195    C   39  pz     Val( 2p)     0.98917       0.07881
 
   196    C   40  S      Cor( 1S)     1.99998     -11.02602
   197    C   40  S      Val( 2S)     1.10370      -0.24613
   198    C   40  px     Val( 2p)     0.93383       0.09381
   199    C   40  py     Val( 2p)     0.95140       0.08956
   200    C   40  pz     Val( 2p)     0.95606       0.07966
 
   201    N   41  S      Cor( 1S)     1.99999     -15.42584
   202    N   41  S      Val( 2S)     1.40708      -0.66661
   203    N   41  px     Val( 2p)     1.22815      -0.12325
   204    N   41  py     Val( 2p)     1.13653      -0.09595
   205    N   41  pz     Val( 2p)     1.18884      -0.11267
 
   206    C   42  S      Cor( 1S)     1.99990     -11.03768
   207    C   42  S      Val( 2S)     1.08927      -0.23476
   208    C   42  px     Val( 2p)     1.02619       0.04815
   209    C   42  py     Val( 2p)     0.88372       0.07785
   210    C   42  pz     Val( 2p)     0.95549       0.06481
 
   211    C   43  S      Cor( 1S)     1.99996     -10.99500
   212    C   43  S      Val( 2S)     1.08068      -0.20451
   213    C   43  px     Val( 2p)     1.00824       0.07481
   214    C   43  py     Val( 2p)     0.98996       0.07575
   215    C   43  pz     Val( 2p)     0.99372       0.08174
 
   216    C   44  S      Cor( 1S)     1.99995     -10.99074
   217    C   44  S      Val( 2S)     1.08540      -0.20526
   218    C   44  px     Val( 2p)     1.00156       0.08026
   219    C   44  py     Val( 2p)     0.97660       0.08532
   220    C   44  pz     Val( 2p)     1.00756       0.07355
 
   221    C   45  S      Cor( 1S)     1.99995     -10.99530
   222    C   45  S      Val( 2S)     1.08941      -0.21554
   223    C   45  px     Val( 2p)     0.99056       0.05990
   224    C   45  py     Val( 2p)     1.02783       0.06213
   225    C   45  pz     Val( 2p)     0.98669       0.07429
 
   226    C   46  S      Cor( 1S)     1.99991     -11.03108
   227    C   46  S      Val( 2S)     1.09720      -0.23661
   228    C   46  px     Val( 2p)     1.00110       0.05944
   229    C   46  py     Val( 2p)     0.91472       0.06659
   230    C   46  pz     Val( 2p)     0.94953       0.06716
 
   231    C   47  S      Cor( 1S)     1.99992     -10.99950
   232    C   47  S      Val( 2S)     1.10153      -0.22848
   233    C   47  px     Val( 2p)     1.00233       0.06414
   234    C   47  py     Val( 2p)     0.96619       0.07382
   235    C   47  pz     Val( 2p)     1.00352       0.06888
 
   236    C   48  S      Cor( 1S)     1.99994     -11.02004
[...]
  116      -0.5821       -2.2033       1.6212        -0.5070      -0.0751
  121       0.1563       -1.0637       1.2200        -0.6877       0.8440
 Sum       29.1201       -1.7217      30.8418        -4.5906      33.7107

 Contributions to Isotropic shielding for atom   94 (    31.2591 ppm):
                         Standard Origin              Atomic Origin
 NLMO      Total    Paramagnetic  Diamagnetic   Paramagnetic  Diamagnetic
   89      -0.3341        0.3546      -0.6887        -1.0190       0.6849
   97       0.2160       -0.8140       1.0300         0.1915       0.0245
  102       1.8635       -1.4048       3.2683         0.9656       0.8979
  103      -0.0932        0.5898      -0.6831        -1.1554       1.0622
  105       1.0624        1.0219       0.0405        -0.0602       1.1225
  106      25.7467        0.1425      25.6043         0.4009      25.3459
  107       1.7877        3.1063      -1.3187        -0.0389       1.8266
  108      -0.1751       -1.1697       0.9946        -1.4024       1.2274
  195       0.1436       -0.5827       0.7263         1.0018      -0.8582
 Sum       30.2174        1.2438      28.9736        -1.1162      31.3336

 Contributions to Isotropic shielding for atom   95 (    32.2085 ppm):
                         Standard Origin              Atomic Origin
 NLMO      Total    Paramagnetic  Diamagnetic   Paramagnetic  Diamagnetic
   89      -0.2890        0.3496      -0.6386        -1.0057       0.7167
  102       1.3325        0.7788       0.5537         0.3900       0.9426
  104      -0.0381        1.1676      -1.2057        -1.0570       1.0189
  105       0.4742        3.3023      -2.8281        -0.5909       1.0651
  106       2.2380        2.6057      -0.3677         0.3977       1.8402
  107      26.2506       -0.5102      26.7608         0.4813      25.7693
  109      -0.0422       -0.5314       0.4892        -1.1970       1.1547
 Sum       29.9259        7.1625      22.7635        -2.5816      32.5076

 Contributions to Isotropic shielding for atom   96 (    31.9777 ppm):
                         Standard Origin              Atomic Origin
 NLMO      Total    Paramagnetic  Diamagnetic   Paramagnetic  Diamagnetic
   89      -0.2636        0.2713      -0.5348        -1.1108       0.8472
   94      -0.1376        0.3790      -0.5166        -1.0678       0.9302
   97       1.7397       -0.7544       2.4941         0.8640       0.8757
   99      -0.2458        0.2475      -0.4933        -1.1609       0.9150
  105       1.5210       -0.5767       2.0977         0.4596       1.0613
  106      -0.2332       -0.2000      -0.0332        -1.4512       1.2180
  108      26.0843        0.2248      25.8595         0.4498      25.6345
  109       1.5559        3.5316      -1.9757        -0.2851       1.8410
 Sum       30.0207        3.1230      26.8976        -3.3024      33.3230

 Contributions to Isotropic shielding for atom   97 (    32.2964 ppm):
                         Standard Origin              Atomic Origin
 NLMO      Total    Paramagnetic  Diamagnetic   Paramagnetic  Diamagnetic
   94      -0.1906        1.3231      -1.5137        -0.8797       0.6891
   97       0.8782        1.7371      -0.8590         0.0649       0.8132
   98      -0.3148        1.3556      -1.6704        -1.3132       0.9984
  105       0.7702        2.3436      -1.5734        -0.2249       0.9951
  107      -0.1258        0.7046      -0.8304        -1.3087       1.1829
  108       2.1295        2.8045      -0.6750         0.3400       1.7895
  109      26.4859       -0.5771      27.0630         0.6625      25.8234
  117      -0.0086       -1.1845       1.1758        -0.8536       0.8449
 Sum       29.6240        8.5070      21.1170        -3.5126      33.1366

 Contributions to Isotropic shielding for atom   98 (    33.3127 ppm):
                         Standard Origin              Atomic Origin
 NLMO      Total    Paramagnetic  Diamagnetic   Paramagnetic  Diamagnetic
   71      -0.0787       -0.6773       0.5986        -1.0123       0.9336
   79       0.3235       -0.7237       1.0473        -0.4265       0.7500
   81       0.2845       -0.9282       1.2127        -0.5348       0.8193
  110       1.6496       -0.6151       2.2647         0.9568       0.6928
  111      25.8336        0.3413      25.4924         0.4902      25.3434
  112       1.8543        1.9600      -0.1057         0.0851       1.7692
  114       0.1378        0.0509       0.0869        -0.8738       1.0117
  118       0.4644       -0.7515       1.2159        -0.2210       0.6854
  120       0.6010       -0.4627       1.0637        -0.0093       0.6103
  121       0.0949       -1.4821       1.5769        -0.7711       0.8660
  191      -0.3376        0.7179      -1.0556         0.2745      -0.6121
 Sum       30.8272       -2.5705      33.3977        -2.0423      32.8695

 Contributions to Isotropic shielding for atom   99 (    32.7583 ppm):
                         Standard Origin              Atomic Origin
 NLMO      Total    Paramagnetic  Diamagnetic   Paramagnetic  Diamagnetic
   83      -0.3469        0.6714      -1.0183        -0.7924       0.4455
   85       0.5777        1.4079      -0.8301        -0.1533       0.7310
   87       0.1008       -1.4550       1.5557        -0.7663       0.8671
   98       0.2080       -1.2417       1.4497        -0.4788       0.6868
  104      -0.1865       -1.3512       1.1647        -0.3774       0.1910
  110       1.2343        0.4198       0.8145         0.4100       0.8243
  111       1.9736        1.5209       0.4527         0.0568       1.9168
  112      26.1431       -0.0954      26.2386         0.5161      25.6270
  115       0.0361       -1.5976       1.6337        -0.9189       0.9550
  116      -0.3079       -1.5818       1.2738        -0.8342       0.5263
  118       0.8833       -1.4875       2.3708        -0.1011       0.9844
  120       1.2989       -1.2805       2.5793         0.4822       0.8167
  121       0.1126       -3.8857       3.9983        -1.1351       1.2477
  123       0.2652       -0.8570       1.1222        -0.3557       0.6209
  191      -0.9475        1.8669      -2.8144         0.0247      -0.9722
 Sum       31.0449       -8.9464      39.9913        -4.4234      35.4683

 Contributions to Isotropic shielding for atom  100 (    31.5429 ppm):
                         Standard Origin              Atomic Origin
 NLMO      Total    Paramagnetic  Diamagnetic   Paramagnetic  Diamagnetic
   99       0.2457       -0.5279       0.7736        -1.0327       1.2784
  103      -0.0023       -1.2928       1.2904        -0.9527       0.9504
  104       0.1210       -1.3612       1.4822        -0.7656       0.8866
  112       0.1206       -0.9246       1.0453        -0.9559       1.0766
  113      26.0929        0.4541      25.6387         0.8136      25.2793
  114       1.9460       -0.6572       2.6031         0.0704       1.8756
 Sum       28.5239       -4.3095      32.8333        -2.8230      31.3468

 Contributions to Isotropic shielding for atom  101 (    31.1650 ppm):
                         Standard Origin              Atomic Origin
 NLMO      Total    Paramagnetic  Diamagnetic   Paramagnetic  Diamagnetic
    3       0.0114       -0.6971       0.7085        -1.0025       1.0139
   71       0.1702       -0.9004       1.0706        -1.0558       1.2260
   85       0.3174       -0.7452       1.0626        -0.4350       0.7524
  100       1.5398       -0.2923       1.8321         0.5915       0.9482
  101       0.0129       -1.0095       1.0224        -0.9701       0.9829
  111       0.1043       -1.0942       1.1985        -0.8329       0.9372
  113       1.5841       -0.3821       1.9663        -0.2915       1.8757
  114      25.4435        0.7990      24.6445         0.6542      24.7893
 Sum       29.1835       -4.3218      33.5053        -3.3420      32.5255

 Contributions to Isotropic shielding for atom  102 (    31.6000 ppm):
                         Standard Origin              Atomic Origin
 NLMO      Total    Paramagnetic  Diamagnetic   Paramagnetic  Diamagnetic
   87       0.3826       -1.0646       1.4472         0.0691       0.3135
   98       2.0677       -2.0421       4.1099         1.1096       0.9582
  102      -0.1880        0.3699      -0.5579        -1.0515       0.8635
  115       1.0868        0.2275       0.8594         0.1911       0.8958
  116      26.1173        0.3072      25.8101         0.4474      25.6699
  117       1.3049        2.8751      -1.5703        -0.5998       1.9046
  118       0.3547       -0.4843       0.8389        -0.7064       1.0610
  120       0.0832       -1.1663       1.2495        -0.7932       0.8764
  121       0.5125       -1.7037       2.2162        -1.1957       1.7082
  191      -0.5430        0.6470      -1.1900         0.3445      -0.8875
 Sum       31.1787       -2.0343      33.2130        -2.1849      33.3636

 Contributions to Isotropic shielding for atom  103 (    32.0977 ppm):
                         Standard Origin              Atomic Origin
 NLMO      Total    Paramagnetic  Diamagnetic   Paramagnetic  Diamagnetic
   94      -0.2727        1.4633      -1.7359        -1.1178       0.8452
   96      -0.0404       -1.2060       1.1656        -0.8107       0.7703
   97      -0.2272        1.4276      -1.6548        -1.0094       0.7822
   98       1.2105        1.2288      -0.0183         0.1926       1.0179
  115       0.2703        3.7351      -3.4648        -0.8006       1.0708
  116       1.9554        2.2541      -0.2988         0.0549       1.9005
  117      26.5422       -0.6775      27.2198         0.7439      25.7983
  119      -0.1045       -0.3162       0.2117        -1.2449       1.1404
  121       0.1439       -0.3428       0.4867        -0.9243       1.0682
 Sum       29.4775        7.5663      21.9112        -4.9163      34.3939

 Contributions to Isotropic shielding for atom  104 (    31.2127 ppm):
                         Standard Origin              Atomic Origin
 NLMO      Total    Paramagnetic  Diamagnetic   Paramagnetic  Diamagnetic
   81      -0.6239        1.3591      -1.9830        -1.2593       0.6354
   82      -0.1253        0.2832      -0.4085        -1.0492       0.9239
   86      -0.4758        1.7557      -2.2315        -1.6188       1.1430
   87       1.5148        1.1043       0.4105         0.5721       0.9427
  115       1.0491        3.1391      -2.0899        -0.1320       1.1812
  117      -0.1341        0.3516      -0.4857        -1.2875       1.1533
  118       0.0566        5.0872      -5.0306        -0.8958       0.9524
  119      26.1192       -1.1804      27.2996         0.6049      25.5144
  122       0.1408       -0.8851       1.0258        -1.5104       1.6512
  127      -0.1878       -2.3135       2.1258        -0.6006       0.4128
 Sum       27.3336        8.7012      18.6324        -7.1767      34.5103

 Contributions to Isotropic shielding for atom  105 (    30.5911 ppm):
                         Standard Origin              Atomic Origin
 NLMO      Total    Paramagnetic  Diamagnetic   Paramagnetic  Diamagnetic
  120      -1.2154        0.7827      -1.9980        -2.1197       0.9043
  121      -0.4679        1.9889      -2.4567        -2.0114       1.5435
  122      -1.4038        0.8592      -2.2630        -2.1855       0.7816
  123       0.9442        0.9899      -0.0456        -0.5204       1.4646
  124      26.3687        0.5682      25.8005         1.1438      25.2249
  125       1.1308        4.3090      -3.1782        -0.9117       2.0425
  126       1.7305       -0.1327       1.8631        -0.1419       1.8724
  191       0.5461       -1.4953       2.0414         1.3249      -0.7788
  193       1.4907       -0.8629       2.3536         1.5512      -0.0606
 Sum       29.1239        7.0069      22.1170        -3.8706      32.9945

 Contributions to Isotropic shielding for atom  106 (    30.5307 ppm):
                         Standard Origin              Atomic Origin
 NLMO      Total    Paramagnetic  Diamagnetic   Paramagnetic  Diamagnetic
  120      -0.5625        0.1753      -0.7377        -1.1899       0.6275
  121      -0.0558        0.8161      -0.8719        -1.0836       1.0278
  123       0.6822        2.2248      -1.5426        -1.3932       2.0754
  124       0.6775        3.9574      -3.2799        -1.3085       1.9861
  125      26.0568        0.3887      25.6680         0.8815      25.1752
  126       1.6232        0.4128       1.2104        -0.3731       1.9963
  193       0.7783       -0.9914       1.7698         1.2482      -0.4699
 Sum       29.1997        6.9837      22.2160        -3.2186      32.4184

 Contributions to Isotropic shielding for atom  107 (    30.6823 ppm):
                         Standard Origin              Atomic Origin
 NLMO      Total    Paramagnetic  Diamagnetic   Paramagnetic  Diamagnetic
  120      -0.7594        0.3595      -1.1189        -1.6587       0.8993
  121      -0.1923        0.8153      -1.0076        -1.7265       1.5342
  122      -0.5266        0.6767      -1.2032        -1.3748       0.8482
  123       2.8620       -5.5526       8.4147         1.4475       1.4146
  124       1.3433        0.6308       0.7126        -0.5318       1.8751
  125       1.5345        0.7861       0.7484        -0.5104       2.0449
  126      25.9477        1.0652      24.8824         0.7904      25.1573
 Sum       30.2092       -1.2191      31.4283        -3.5644      33.7737

 Contributions to Isotropic shielding for atom  108 (    30.9113 ppm):
                         Standard Origin              Atomic Origin
 NLMO      Total    Paramagnetic  Diamagnetic   Paramagnetic  Diamagnetic
   76      -0.6530        0.1246      -0.7776        -1.5049       0.8519
   81      -0.6576        1.6818      -2.3395        -1.4196       0.7620
   82       1.2519       -0.8029       2.0548         0.0751       1.1768
   86      -0.3015        1.1186      -1.4201        -1.1405       0.8390
   87      -0.2846        1.2507      -1.5353        -1.1549       0.8704
  118      -0.3459        0.5640      -0.9100        -1.1058       0.7599
  122       0.7563       -0.6777       1.4339         0.2075       0.5487
  127      25.9755        0.1213      25.8542         0.6515      25.3241
  128       1.6180        3.5729      -1.9549        -0.3634       1.9814
  129       1.2195        2.3357      -1.1162        -0.6161       1.8356
  190       1.4724        0.0539       1.4185         1.4721       0.0003
  193      -0.9582        0.1206      -1.0788         0.3678      -1.3260
 Sum       29.0928        9.4636      19.6292        -4.5312      33.6240

 Contributions to Isotropic shielding for atom  109 (    30.6996 ppm):
                         Standard Origin              Atomic Origin
 NLMO      Total    Paramagnetic  Diamagnetic   Paramagnetic  Diamagnetic
   75      -0.6003        0.8766      -1.4769        -1.3120       0.7116
   76      -1.0443        0.3306      -1.3749        -2.4033       1.3590
   79      -0.4513        1.1506      -1.6019        -1.0887       0.6373
   82       1.7519       -1.2728       3.0247         0.5010       1.2509
  127       1.5098        3.5949      -2.0852        -0.4594       1.9692
  128      25.9856        0.2277      25.7579         0.6483      25.3373
  129       1.4103        2.0132      -0.6029        -0.3849       1.7953
 Sum       28.5616        6.9208      21.6408        -4.4990      33.0606

 Contributions to Isotropic shielding for atom  110 (    31.8952 ppm):
                         Standard Origin              Atomic Origin
 NLMO      Total    Paramagnetic  Diamagnetic   Paramagnetic  Diamagnetic
   75      -0.3614        1.0503      -1.4117        -0.9783       0.6169
   76      -1.2726        0.4003      -1.6729        -2.4658       1.1932
   79      -0.6160        1.4124      -2.0283        -1.2996       0.6837
   82       1.9356       -2.6292       4.5648         1.1691       0.7664
   86      -0.2179        0.5403      -0.7583        -1.2409       1.0230
  127       1.7364        3.1533      -1.4169        -0.1842       1.9206
  128       1.8138        2.6534      -0.8397        -0.0818       1.8956
  129      26.6495        0.6379      26.0116         0.9649      25.6845
 Sum       29.6674        7.2187      22.4486        -4.1165      33.7839
 
 1\1\GINC-PCSN02\SP\RHF\STO-3G\C45H56N4O5\ABENIDD\30-May-2024\0\\# nmr=
 giao hf/sto-3g pop=nbo geom=connectivity\\pleiokomenine_C_1a\\0,1\C,0,
 0.,0.,0.\C,0,1.4022,0.,0.\C,0,2.0966,1.2282,0.\C,0,1.4127,2.4513,-0.01
 25\C,0,0.0294,2.4433,-0.0537\C,0,-0.6626,1.216,-0.032\N,0,-0.8556,3.55
 56,-0.1526\C,0,-2.1422,1.5091,0.0096\C,0,-2.088,2.9155,-0.6887\C,0,-3.
 1584,0.6325,-0.726\C,0,-1.8997,2.7117,-2.2623\C,0,-3.0351,1.8867,-2.86
 84\C,0,-3.9872,1.4349,-1.7564\N,0,-4.0993,0.2271,0.3223\C,0,-4.9852,-0
 .8261,-0.1207\C,0,-5.8837,-0.2265,-1.2159\C,0,-5.0964,0.5115,-2.3146\C
 ,0,-2.5397,1.3603,1.5021\C,0,-3.3369,0.054,1.5347\C,0,-4.5628,2.7387,-
 1.0984\C,0,-3.4253,3.6801,-0.5794\C,0,-3.7608,4.3071,0.7645\O,0,-4.745
 1,4.0432,1.444\O,0,-2.871,5.2914,1.076\C,0,-3.1036,5.9143,2.3384\C,0,-
 0.3196,4.7691,-0.7478\C,0,2.1611,-1.3095,-0.0515\C,0,2.5276,-1.7439,-1
 .4558\C,0,1.5306,-1.9067,-2.4268\C,0,3.8698,-1.9985,-1.8035\C,0,4.2212
 ,-2.4167,-3.0956\C,0,3.2266,-2.5761,-4.0453\C,0,1.8968,-2.2791,-3.7099
 \N,0,3.3533,-3.0342,-5.3849\C,0,1.0484,-2.4035,-4.9477\C,0,1.9632,-3.4
 2,-5.7328\C,0,-0.3658,-2.9666,-4.8414\C,0,1.659,-4.8846,-5.1984\C,0,0.
 199,-5.2797,-5.4786\C,0,-0.5862,-4.0324,-5.9531\N,0,-1.3434,-1.7829,-4
 .8297\C,0,-2.2593,-1.7727,-6.0288\C,0,-2.959,-3.1033,-6.2649\C,0,-2.07
 97,-4.3412,-6.0793\C,0,0.8264,-0.9905,-5.5039\C,0,-0.4628,-0.5505,-4.8
 355\C,0,0.0608,-3.6505,-7.3319\C,0,1.609,-3.4916,-7.2296\C,0,2.1488,-2
 .3837,-8.1219\O,0,1.4641,-1.522,-8.6593\O,0,3.4877,-2.5291,-8.3199\C,0
 ,4.0761,-1.5138,-9.1332\C,0,4.4717,-3.9274,-5.6555\O,0,-2.1045,-1.8015
 ,-3.6864\H,0,-0.5593,-0.931,0.0109\H,0,3.1846,1.2347,-0.0029\H,0,1.972
 2,3.3792,-0.0127\H,0,-2.6691,-0.2358,-1.1877\H,0,-1.8606,3.6866,-2.766
 3\H,0,-0.946,2.2288,-2.509\H,0,-3.5697,2.4813,-3.6195\H,0,-2.6175,1.02
 43,-3.3998\H,0,-4.4322,-1.6935,-0.5003\H,0,-5.6205,-1.172,0.7025\H,0,-
 6.4895,-1.0195,-1.6695\H,0,-6.5885,0.4777,-0.7548\H,0,-4.6388,-0.2474,
 -2.9631\H,0,-5.7899,1.0805,-2.9452\H,0,-3.1796,2.1718,1.8457\H,0,-1.69
 58,1.3107,2.2005\H,0,-2.6824,-0.8239,1.4979\H,0,-3.9687,-0.0026,2.426\
 H,0,-5.1542,3.2885,-1.8433\H,0,-5.2689,2.4838,-0.3014\H,0,-3.4023,4.54
 06,-1.2656\H,0,-3.0815,5.1739,3.1444\H,0,-2.3015,6.6368,2.5122\H,0,-4.
 0573,6.4509,2.3291\H,0,0.1722,4.5763,-1.708\H,0,0.4038,5.2379,-0.0722\
 H,0,-1.115,5.5004,-0.9211\H,0,1.5684,-2.1056,0.418\H,0,3.0631,-1.2162,
 0.5673\H,0,0.4862,-1.723,-2.1883\H,0,4.6566,-1.8748,-1.0621\H,0,5.2619
 ,-2.6089,-3.3304\H,0,-0.5191,-3.4398,-3.8606\H,0,2.3229,-5.6189,-5.672
 2\H,0,1.8518,-4.9701,-4.1217\H,0,-0.2427,-5.7096,-4.5709\H,0,0.1643,-6
 .0692,-6.2402\H,0,-2.9966,-0.9822,-5.8406\H,0,-1.6695,-1.4617,-6.8929\
 H,0,-3.8192,-3.1851,-5.5883\H,0,-3.3789,-3.1014,-7.2781\H,0,-2.4165,-4
 .8544,-5.1681\H,0,-2.2626,-5.0491,-6.8972\H,0,1.6429,-0.2878,-5.3059\H
 ,0,0.6438,-0.9829,-6.5739\H,0,-0.9796,0.2559,-5.3646\H,0,-0.3131,-0.25
 13,-3.7936\H,0,-0.4024,-2.761,-7.7577\H,0,-0.1496,-4.4466,-8.06\H,0,2.
 0421,-4.4079,-7.66\H,0,3.6732,-1.5586,-10.1496\H,0,5.1529,-1.6983,-9.1
 784\H,0,3.9129,-0.525,-8.6931\H,0,4.3903,-4.3597,-6.6575\H,0,5.4178,-3
 .3767,-5.6203\H,0,4.5196,-4.7552,-4.9387\\Version=ES64L-G16RevB.01\Sta
 te=1-A\HF=-2300.2176677\RMSD=3.872e-09\Dipole=1.4851043,-0.8441946,-1.
 9693459\Quadrupole=-8.3595254,8.6034325,-0.2439071,-1.7811827,1.979975
 ,6.1862682\PG=C01 [X(C45H56N4O5)]\\@


 A FOOL CAN ASK MORE QUESTIONS THAN
 A WISE MAN CAN ANSWER.
 Job cpu time:       0 days  0 hours 11 minutes 56.8 seconds.
 Elapsed time:       0 days  0 hours  2 minutes  1.2 seconds.
 File lengths (MBytes):  RWF=     67 Int=      0 D2E=      0 Chk=     10 Scr=      1
 Normal termination of Gaussian 16 at Thu May 30 08:41:14 2024.
