 Entering Gaussian System, Link 0=g16
 Input=2_pleiokomenine_2a_c_15.gjf
 Output=2_pleiokomenine_2a_c_15.log
 Initial command:
 /opt/gaussian/g16/l1.exe "/data/abenidd/Elvis/pleiokomenine_C/NMR_HF/2a/2_pleiokomenine_2a_c_15/Gau-27259.inp" -scrdir="/data/abenidd/Elvis/pleiokomenine_C/NMR_HF/2a/2_pleiokomenine_2a_c_15/"
 Entering Link 1 = /opt/gaussian/g16/l1.exe PID=     27261.
  
 Copyright (c) 1988-2017, Gaussian, Inc.  All Rights Reserved.
  
 This is part of the Gaussian(R) 16 program.  It is based on
 the Gaussian(R) 09 system (copyright 2009, Gaussian, Inc.),
 the Gaussian(R) 03 system (copyright 2003, Gaussian, Inc.),
 the Gaussian(R) 98 system (copyright 1998, Gaussian, Inc.),
 the Gaussian(R) 94 system (copyright 1995, Gaussian, Inc.),
 the Gaussian 92(TM) system (copyright 1992, Gaussian, Inc.),
 the Gaussian 90(TM) system (copyright 1990, Gaussian, Inc.),
 the Gaussian 88(TM) system (copyright 1988, Gaussian, Inc.),
 the Gaussian 86(TM) system (copyright 1986, Carnegie Mellon
 University), and the Gaussian 82(TM) system (copyright 1983,
 Carnegie Mellon University). Gaussian is a federally registered
 trademark of Gaussian, Inc.
  
 This software contains proprietary and confidential information,
 including trade secrets, belonging to Gaussian, Inc.
  
 This software is provided under written license and may be
 used, copied, transmitted, or stored only in accord with that
 written license.
  
 The following legend is applicable only to US Government
 contracts under FAR:
  
                    RESTRICTED RIGHTS LEGEND
  
 Use, reproduction and disclosure by the US Government is
 subject to restrictions as set forth in subparagraphs (a)
 and (c) of the Commercial Computer Software - Restricted
 Rights clause in FAR 52.227-19.
  
 Gaussian, Inc.
 340 Quinnipiac St., Bldg. 40, Wallingford CT 06492
  
  
 ---------------------------------------------------------------
 Warning -- This program may not be used in any manner that
 competes with the business of Gaussian, Inc. or will provide
 assistance to any competitor of Gaussian, Inc.  The licensee
 of this program is prohibited from giving any competitor of
 Gaussian, Inc. access to this program.  By using this program,
 the user acknowledges that Gaussian, Inc. is engaged in the
 business of creating and licensing software in the field of
 computational chemistry and represents and warrants to the
 licensee that it is not a competitor of Gaussian, Inc. and that
 it will not use this program in any manner prohibited above.
 ---------------------------------------------------------------
  

 Cite this work as:
 Gaussian 16, Revision B.01,
 M. J. Frisch, G. W. Trucks, H. B. Schlegel, G. E. Scuseria, 
 M. A. Robb, J. R. Cheeseman, G. Scalmani, V. Barone, 
 G. A. Petersson, H. Nakatsuji, X. Li, M. Caricato, A. V. Marenich, 
 J. Bloino, B. G. Janesko, R. Gomperts, B. Mennucci, H. P. Hratchian, 
 J. V. Ortiz, A. F. Izmaylov, J. L. Sonnenberg, D. Williams-Young, 
 F. Ding, F. Lipparini, F. Egidi, J. Goings, B. Peng, A. Petrone, 
 T. Henderson, D. Ranasinghe, V. G. Zakrzewski, J. Gao, N. Rega, 
 G. Zheng, W. Liang, M. Hada, M. Ehara, K. Toyota, R. Fukuda, 
 J. Hasegawa, M. Ishida, T. Nakajima, Y. Honda, O. Kitao, H. Nakai, 
 T. Vreven, K. Throssell, J. A. Montgomery, Jr., J. E. Peralta, 
 F. Ogliaro, M. J. Bearpark, J. J. Heyd, E. N. Brothers, K. N. Kudin, 
 V. N. Staroverov, T. A. Keith, R. Kobayashi, J. Normand, 
 K. Raghavachari, A. P. Rendell, J. C. Burant, S. S. Iyengar, 
 J. Tomasi, M. Cossi, J. M. Millam, M. Klene, C. Adamo, R. Cammi, 
 J. W. Ochterski, R. L. Martin, K. Morokuma, O. Farkas, 
 J. B. Foresman, and D. J. Fox, Gaussian, Inc., Wallingford CT, 2016.
 
 ******************************************
 Gaussian 16:  ES64L-G16RevB.01 20-Dec-2017
                30-May-2024 
 ******************************************
 %nprocshared=8
 Will use up to    8 processors via shared memory.
 ----------------------------------------------
 # nmr=giao hf/sto-3g pop=nbo geom=connectivity
 ----------------------------------------------
 1/38=1,57=2,172=1/1;
 2/12=2,17=6,18=5,40=1/2;
 3/6=3,11=9,25=1,30=1/1,2,3,8;
 4//1;
 5/5=2,38=5/2;
 8/6=1,10=90,11=11/1;
 10/13=100,45=16/2;
 6/7=2,8=2,9=2,10=2,28=1,40=1,64=1/1,7;
 99/9=1/99;
 -----------------
 Pleiokomenine_C_2
 -----------------
 Symbolic Z-matrix:
 Charge =  0 Multiplicity = 1
 C                     0.        0.        0. 
 C                     1.4015    0.        0. 
 C                     2.0916    1.2301    0. 
 C                     1.403     2.4515   -0.0087 
 C                     0.0193    2.4421    0.0013 
 C                    -0.6643    1.2153    0.0355 
 N                    -0.8681    3.5509   -0.0062 
 C                    -2.1356    1.4873    0.2185 
 C                    -2.1561    2.9331   -0.4136 
 C                    -3.1841    0.6086   -0.4761 
 C                    -2.198     2.7967   -1.9969 
 C                    -3.4685    2.0694   -2.4585 
 C                    -4.2135    1.5233   -1.2236 
 N                    -3.7258   -0.241     0.5914 
 C                    -4.9748   -0.9146    0.2613 
 C                    -6.0261   -0.0432   -0.4256 
 C                    -5.4407    0.6951   -1.6295 
 C                    -2.4201    1.3061    1.7313 
 C                    -3.7286    0.5333    1.8235 
 C                    -4.6474    2.7897   -0.4088 
 C                    -3.4406    3.7053   -0.0653 
 C                    -3.5357    4.2819    1.3362 
 O                    -4.2553    3.8482    2.2276 
 O                    -2.764     5.3988    1.4504 
 C                    -2.7685    5.9835    2.7525 
 C                    -0.3828    4.7715   -0.6314 
 C                     2.1608   -1.3067    0.1069 
 C                     2.3611   -1.7511    1.542 
 C                     1.2538   -2.1289    2.3177 
 C                     3.6498   -1.7631    2.1202 
 C                     3.8419   -2.1149    3.463 
 C                     2.7337   -2.437     4.2256 
 C                     1.4505   -2.4503    3.6487 
 N                     2.7203   -2.6616    5.6493 
 C                     0.4705   -2.9493    4.68 
 C                     1.2663   -2.4676    5.9363 
 C                    -0.938    -2.3819    4.7903 
 C                     1.1741   -0.8329    6.0272 
 C                    -0.2593   -0.3164    5.9199 
 C                    -1.2107   -1.5119    6.0268 
 N                    -1.8691   -3.5818    4.7616 
 C                    -3.246    -3.088     4.4558 
 C                    -3.6998   -2.1636    5.6019 
 C                    -2.688    -1.0537    5.9652 
 C                     0.2382   -4.4349    4.2843 
 C                    -1.2085   -4.4567    3.7609 
 C                    -0.8095   -2.2194    7.3637 
 C                     0.6288   -2.8698    7.2928 
 C                     0.586    -4.3382    7.7015 
 O                     1.2276   -5.2516    7.2024 
 O                    -0.1669   -4.484     8.8358 
 C                    -0.3112   -5.8362    9.267 
 C                     3.4059   -3.8993    5.9907 
 O                    -1.9262   -4.3067    5.9266 
 H                    -0.563    -0.9275    0.033 
 H                     3.1793    1.2415    0.0284 
 H                     1.961     3.3807    0.0006 
 H                    -2.7107   -0.0596   -1.2084 
 H                    -2.1635    3.7863   -2.4704 
 H                    -1.3214    2.261    -2.3822 
 H                    -4.1087    2.7577   -3.0248 
 H                    -3.1993    1.2616   -3.1503 
 H                    -4.7318   -1.7471   -0.4118 
 H                    -5.405    -1.381     1.1561 
 H                    -6.8556   -0.6767   -0.7614 
 H                    -6.4518    0.6674    0.291 
 H                    -5.1577   -0.0417   -2.3925 
 H                    -6.2092    1.3334   -2.0814 
 H                    -1.647     0.6863    2.2096 
 H                    -2.4297    2.2331    2.3034 
 H                    -3.7319   -0.1193    2.7028 
 H                    -4.5864    1.2011    1.9125 
 H                    -5.2204    2.5157    0.4771 
 H                    -5.3526    3.3777   -1.0139 
 H                    -3.5226    4.5845   -0.7228 
 H                    -2.0797    6.8327    2.7447 
 H                    -2.4204    5.2631    3.4996 
 H                    -3.7688    6.3502    3.0024 
 H                     0.017     4.588    -1.6351 
 H                     0.4018    5.2293   -0.0195 
 H                    -1.1876    5.5076   -0.7211 
 H                     1.6262   -2.0941   -0.4408 
 H                     3.1282   -1.2078   -0.4021 
 H                     0.2603   -2.1616    1.8859 
 H                     4.5149   -1.4697    1.5293 
 H                     4.8294   -2.0748    3.9091 
 H                    -1.1731   -1.8159    3.8761 
 H                     1.7775   -0.3225    5.2659 
 H                     1.616    -0.5053    6.9792 
 H                    -0.452     0.4237    6.7061 
 H                    -0.3944    0.2061    4.9639 
 H                    -3.8895   -3.9699    4.3706 
 H                    -3.2084   -2.5678    3.4932 
 H                    -3.8844   -2.7665    6.4997 
 H                    -4.6605   -1.7067    5.3381 
 H                    -2.9816   -0.5884    6.9138 
 H                    -2.7825   -0.2708    5.2003 
 H                     0.9191   -4.829     3.5209 
 H                     0.3136   -5.1062    5.1364 
 H                    -1.6735   -5.4463    3.7867 
 H                    -1.3207   -3.9918    2.7763 
 H                    -1.5807   -2.9235    7.6849 
 H                    -0.7962   -1.4682    8.1673 
 H                     1.2385   -2.4173    8.0902 
 H                     0.6521   -6.2332    9.602 
 H                    -1.0041   -5.8498    10.1128 
 H                    -0.7308   -6.4559    8.4681 
 H                     2.9647   -4.7717    5.4981 
 H                     3.3986   -4.0435    7.0749 
 H                     4.4624   -3.8483    5.7022 
 
 Stoichiometry    C45H56N4O5
 Framework group  C1[X(C45H56N4O5)]
 Deg. of freedom   324
 Full point group                 C1      NOp   1
 Largest Abelian subgroup         C1      NOp   1
 Largest concise Abelian subgroup C1      NOp   1
                         Standard orientation:                         
 ---------------------------------------------------------------------
 Center     Atomic      Atomic             Coordinates (Angstroms)
 Number     Number       Type             X           Y           Z
 ---------------------------------------------------------------------
      1          6           0       -1.813831    1.966016   -1.368624
      2          6           0       -1.323675    3.268200   -1.200497
      3          6           0       -1.884068    4.093089   -0.203049
      4          6           0       -2.926826    3.638621    0.616816
      5          6           0       -3.397900    2.348189    0.450413
      6          6           0       -2.814370    1.518265   -0.521304
      7          7           0       -4.435988    1.691789    1.163493
      8          6           0       -3.383067    0.129947   -0.375174
      9          6           0       -4.757948    0.540604    0.281614
     10          6           0       -3.644492   -0.740527   -1.611243
     11          6           0       -5.749200    1.016841   -0.866349
     12          6           0       -6.030145   -0.116103   -1.863203
     13          6           0       -5.103725   -1.307552   -1.546305
     14          7           0       -2.561811   -1.731783   -1.605748
     15          6           0       -2.781743   -2.881210   -2.473591
     16          6           0       -4.179632   -3.495547   -2.403613
     17          6           0       -5.266278   -2.434172   -2.576351
     18          6           0       -2.346410   -0.673141    0.451100
     19          6           0       -2.238302   -2.035504   -0.219849
     20          6           0       -5.532552   -1.797190   -0.120717
     21          6           0       -5.476091   -0.655367    0.930821
     22          6           0       -4.942007   -1.131667    2.270077
     23          8           0       -4.311126   -2.166546    2.447641
     24          8           0       -5.323228   -0.286492    3.268265
     25          6           0       -4.829631   -0.643782    4.559026
     26          6           0       -5.482551    2.536440    1.718045
     27          6           0       -0.134510    3.742404   -2.010710
     28          6           0        1.190957    3.376739   -1.373097
     29          6           0        1.571950    2.029116   -1.276586
     30          6           0        2.038590    4.376754   -0.847078
     31          6           0        3.238720    4.048517   -0.202311
     32          6           0        3.574279    2.712807   -0.073108
     33          6           0        2.745934    1.713684   -0.616425
     34          7           0        4.674076    2.185264    0.694806
     35          6           0        3.422452    0.379787   -0.426626
     36          6           0        4.232255    0.766195    0.853425
     37          6           0        2.634261   -0.881478   -0.101136
     38          6           0        3.195729    0.893894    2.117670
     39          6           0        2.285568   -0.324507    2.259186
     40          6           0        2.803962   -1.423170    1.326439
     41          7           0        3.071369   -1.916071   -1.123918
     42          6           0        2.062181   -3.018225   -1.123079
     43          6           0        2.072253   -3.689483    0.263755
     44          6           0        1.947200   -2.706523    1.449401
     45          6           0        4.043191    0.075945   -1.819433
     46          6           0        3.199208   -1.094456   -2.353491
     47          6           0        4.305088   -1.608246    1.727922
     48          6           0        5.184313   -0.345013    1.370208
     49          6           0        6.401447   -0.742296    0.542067
     50          8           0        6.885292   -0.113746   -0.388454
     51          8           0        6.996499   -1.847281    1.089491
     52          6           0        8.117540   -2.329130    0.350377
     53          6           0        5.950303    2.521977    0.081315
     54          8           0        4.307869   -2.471425   -0.903429
     55          1           0       -1.384005    1.293246   -2.104113
     56          1           0       -1.491978    5.095806   -0.045408
     57          1           0       -3.331042    4.292692    1.380795
     58          1           0       -3.536222   -0.152764   -2.533021
     59          1           0       -6.700775    1.356831   -0.437849
     60          1           0       -5.352759    1.881649   -1.412974
     61          1           0       -7.083759   -0.416606   -1.800724
     62          1           0       -5.875048    0.247386   -2.886637
     63          1           0       -2.607126   -2.552079   -3.506233
     64          1           0       -2.026046   -3.653230   -2.283388
     65          1           0       -4.282821   -4.247285   -3.195064
     66          1           0       -4.309420   -4.027348   -1.454913
     67          1           0       -5.200547   -2.023176   -3.592173
     68          1           0       -6.255188   -2.900044   -2.491187
     69          1           0       -1.350182   -0.209161    0.397611
     70          1           0       -2.568959   -0.737138    1.515570
     71          1           0       -1.222375   -2.433438   -0.127083
     72          1           0       -2.913666   -2.762897    0.232347
     73          1           0       -4.958188   -2.670149    0.189562
     74          1           0       -6.569637   -2.159941   -0.166139
     75          1           0       -6.520280   -0.377871    1.142218
     76          1           0       -5.147467    0.125656    5.267962
     77          1           0       -3.735581   -0.680628    4.556569
     78          1           0       -5.250304   -1.602964    4.876081
     79          1           0       -5.898577    3.219998    0.969316
     80          1           0       -5.094744    3.126834    2.555088
     81          1           0       -6.304153    1.928934    2.109834
     82          1           0       -0.176854    3.313359   -3.020610
     83          1           0       -0.203173    4.828184   -2.155946
     84          1           0        0.955215    1.247189   -1.704126
     85          1           0        1.752264    5.424229   -0.913837
     86          1           0        3.858157    4.821138    0.239418
     87          1           0        1.567913   -0.706177   -0.309851
     88          1           0        2.561770    1.788256    2.068779
     89          1           0        3.777416    1.031395    3.040510
     90          1           0        2.264879   -0.658956    3.303555
     91          1           0        1.254416   -0.048650    2.002625
     92          1           0        2.354587   -3.719001   -1.912072
     93          1           0        1.088486   -2.580017   -1.364974
     94          1           0        3.004830   -4.254705    0.383896
     95          1           0        1.260939   -4.424647    0.314712
     96          1           0        2.179619   -3.230689    2.384162
     97          1           0        0.889129   -2.418696    1.517043
     98          1           0        4.024452    0.907955   -2.532965
     99          1           0        5.080527   -0.242459   -1.749024
    100          1           0        3.698938   -1.683009   -3.128136
    101          1           0        2.194361   -0.796250   -2.668947
    102          1           0        4.710439   -2.538582    1.323151
    103          1           0        4.360919   -1.755521    2.816703
    104          1           0        5.639240    0.019341    2.304352
    105          1           0        8.938637   -1.606688    0.391107
    106          1           0        8.453262   -3.261043    0.813520
    107          1           0        7.837065   -2.541316   -0.686274
    108          1           0        6.033105    2.148383   -0.944339
    109          1           0        6.771360    2.126941    0.686416
    110          1           0        6.092409    3.608808    0.056198
 ---------------------------------------------------------------------
 Rotational constants (GHZ):           0.0938512           0.0339732           0.0305484
 Standard basis: STO-3G (5D, 7F)
 There are   326 symmetry adapted cartesian basis functions of A   symmetry.
 There are   326 symmetry adapted basis functions of A   symmetry.
   326 basis functions,   978 primitive gaussians,   326 cartesian basis functions
   197 alpha electrons      197 beta electrons
       nuclear repulsion energy      8180.9558490907 Hartrees.
 NAtoms=  110 NActive=  110 NUniq=  110 SFac= 1.00D+00 NAtFMM=   60 NAOKFM=T Big=T
 Integral buffers will be    131072 words long.
 Raffenetti 1 integral format.
 Two-electron integral symmetry is turned on.
 One-electron integrals computed using PRISM.
 NBasis=   326 RedAO= T EigKep=  1.72D-01  NBF=   326
 NBsUse=   326 1.00D-06 EigRej= -1.00D+00 NBFU=   326
 ExpMin= 1.69D-01 ExpMax= 1.31D+02 ExpMxC= 1.31D+02 IAcc=3 IRadAn=         5 AccDes= 0.00D+00
 Harris functional with IExCor=  205 and IRadAn=       5 diagonalized for initial guess.
 HarFok:  IExCor=  205 AccDes= 0.00D+00 IRadAn=         5 IDoV= 1 UseB2=F ITyADJ=14
 ICtDFT=  3500011 ScaDFX=  1.000000  1.000000  1.000000  1.000000
 FoFCou: FMM=F IPFlag=           0 FMFlag=      100000 FMFlg1=        2001
         NFxFlg=           0 DoJE=T BraDBF=F KetDBF=T FulRan=T
         wScrn=  0.000000 ICntrl=       500 IOpCl=  0 I1Cent=   200000004 NGrid=           0
         NMat0=    1 NMatS0=      1 NMatT0=    0 NMatD0=    1 NMtDS0=    0 NMtDT0=    0
 Petite list used in FoFCou.
 Requested convergence on RMS density matrix=1.00D-08 within 128 cycles.
 Requested convergence on MAX density matrix=1.00D-06.
 Requested convergence on             energy=1.00D-06.
 No special actions if energy rises.
 Integral accuracy reduced to 1.0D-05 until final iterations.
 Initial convergence to 1.0D-05 achieved.  Increase integral accuracy.
 SCF Done:  E(RHF) =  -2300.19459863     A.U. after   15 cycles
            NFock= 15  Conv=0.95D-08     -V/T= 2.0092
 Range of M.O.s used for correlation:     1   326
 NBasis=   326 NAE=   197 NBE=   197 NFC=     0 NFV=     0
 NROrb=    326 NOA=   197 NOB=   197 NVA=   129 NVB=   129
          Differentiating once with respect to magnetic field using GIAOs.
          Electric field/nuclear overlap derivatives assumed to be zero.
 FoFCou: FMM=F IPFlag=           0 FMFlag=      100000 FMFlg1=        2001
         NFxFlg=           0 DoJE=F BraDBF=F KetDBF=T FulRan=T
         wScrn=  0.000000 ICntrl=      6100 IOpCl=  0 I1Cent=           7 NGrid=         110
         NMat0=    1 NMatS0=      1 NMatT0=    0 NMatD0=    1 NMtDS0=    0 NMtDT0=    0
 Symmetry not used in FoFCou.
 FoFJK:  IHMeth= 1 ICntrl=    6127 DoSepK=F KAlg= 0 I1Cent=           0 FoldK=F
 IRaf=         1 NMat=       1 IRICut=       1 DoRegI=T DoRafI=F ISym2E= 0 IDoP0=0 IntGTp=1.
          There are     3 degrees of freedom in the 1st order CPHF.  IDoFFX=0 NUNeed=     3.
      3 vectors produced by pass  0 Test12= 8.47D-13 3.33D-08 XBig12= 1.73D+02 2.07D+00.
 AX will form     3 AO Fock derivatives at one time.
      3 vectors produced by pass  1 Test12= 8.47D-13 3.33D-08 XBig12= 7.46D-01 2.49D-01.
      3 vectors produced by pass  2 Test12= 8.47D-13 3.33D-08 XBig12= 1.92D-02 3.42D-02.
      3 vectors produced by pass  3 Test12= 8.47D-13 3.33D-08 XBig12= 4.16D-04 5.98D-03.
      3 vectors produced by pass  4 Test12= 8.47D-13 3.33D-08 XBig12= 1.49D-05 8.66D-04.
      3 vectors produced by pass  5 Test12= 8.47D-13 3.33D-08 XBig12= 2.97D-07 9.59D-05.
      3 vectors produced by pass  6 Test12= 8.47D-13 3.33D-08 XBig12= 1.18D-08 2.72D-05.
      3 vectors produced by pass  7 Test12= 8.47D-13 3.33D-08 XBig12= 3.49D-10 3.34D-06.
      3 vectors produced by pass  8 Test12= 8.47D-13 3.33D-08 XBig12= 5.78D-12 2.44D-07.
      3 vectors produced by pass  9 Test12= 8.47D-13 3.33D-08 XBig12= 1.11D-13 8.19D-08.
 InvSVY:  IOpt=1 It=  1 EMax= 1.78D-15
 Solved reduced A of dimension    30 with     3 vectors.
 Calculating GIAO nuclear magnetic shielding tensors.
 SCF GIAO Magnetic shielding tensor (ppm):
      1  C    Isotropic =   124.8531   Anisotropy =   149.1330
   XX=   151.6524   YX=    -0.8090   ZX=    79.1060
   XY=     0.7785   YY=    92.5693   ZY=   -64.0624
   XZ=    60.3461   YZ=   -55.1572   ZZ=   130.3378
   Eigenvalues:    31.5903   118.6940   224.2751
      2  C    Isotropic =   119.7728   Anisotropy =   158.5480
   XX=   115.2101   YX=   -47.0074   ZX=    84.7638
   XY=   -40.7983   YY=   106.2105   ZY=   -25.5234
   XZ=    74.4423   YZ=   -21.7926   ZZ=   137.8978
   Eigenvalues:    40.2535    93.5934   225.4715
      3  C    Isotropic =   119.2228   Anisotropy =   154.0545
   XX=   143.2819   YX=   -60.5093   ZX=    49.0598
   XY=   -52.8092   YY=    57.7932   ZY=   -35.6880
   XZ=    38.8120   YZ=   -42.8427   ZZ=   156.5934
   Eigenvalues:    27.3008   108.4419   221.9258
      4  C    Isotropic =   133.6481   Anisotropy =   143.2783
   XX=   164.1145   YX=    -6.7241   ZX=    65.3755
   XY=   -13.7929   YY=   105.6965   ZY=   -49.5564
   XZ=    65.3312   YZ=   -55.4560   ZZ=   131.1333
   Eigenvalues:    52.0034   119.7739   229.1670
      5  C    Isotropic =   109.2079   Anisotropy =   127.8275
   XX=   115.9055   YX=   -26.3033   ZX=    66.0433
   XY=   -30.9008   YY=    94.6160   ZY=   -17.1976
   XZ=    75.9368   YZ=     0.3643   ZZ=   117.1022
   Eigenvalues:    41.2623    91.9352   194.4262
      6  C    Isotropic =   117.4754   Anisotropy =   141.6910
   XX=   154.9982   YX=   -34.8867   ZX=    51.0331
   XY=   -37.1635   YY=    64.2968   ZY=   -22.5047
   XZ=    54.2451   YZ=   -33.5690   ZZ=   133.1313
   Eigenvalues:    50.1665    90.3237   211.9361
      7  N    Isotropic =   274.4989   Anisotropy =    82.3971
   XX=   300.9964   YX=    27.9018   ZX=   -12.0284
   XY=    48.7304   YY=   269.3710   ZY=   -10.9286
   XZ=   -12.9340   YZ=    -4.2921   ZZ=   253.1294
   Eigenvalues:   243.6778   250.3886   329.4303
      8  C    Isotropic =   196.0220   Anisotropy =    11.8649
   XX=   192.6464   YX=    -7.0323   ZX=    -2.5723
   XY=    -5.0541   YY=   196.2882   ZY=     7.6532
   XZ=    -0.5201   YZ=    -0.3146   ZZ=   199.1316
   Eigenvalues:   188.0649   196.0692   203.9320
      9  C    Isotropic =   181.1173   Anisotropy =    44.8486
   XX=   172.4170   YX=    12.7456   ZX=   -15.1567
   XY=     3.6679   YY=   191.2414   ZY=    20.4925
   XZ=    -3.5397   YZ=    29.2619   ZZ=   179.6934
   Eigenvalues:   152.2660   180.0695   211.0163
     10  C    Isotropic =   190.4305   Anisotropy =    30.2872
   XX=   193.8372   YX=   -15.4011   ZX=     6.1555
   XY=   -11.9124   YY=   199.3459   ZY=     4.9629
   XZ=     3.6211   YZ=     7.5143   ZZ=   178.1085
   Eigenvalues:   172.2718   188.3978   210.6220
     11  C    Isotropic =   213.8024   Anisotropy =    19.6589
   XX=   214.0801   YX=    -3.7032   ZX=     9.6966
   XY=    -5.1042   YY=   210.6072   ZY=     2.3760
   XZ=    11.3486   YZ=    -4.7491   ZZ=   216.7199
   Eigenvalues:   203.7708   210.7281   226.9084
     12  C    Isotropic =   212.7589   Anisotropy =    21.4652
   XX=   210.7733   YX=    -9.7290   ZX=     3.1996
   XY=   -11.1917   YY=   220.1039   ZY=    -1.2763
   XZ=     2.5771   YZ=     0.6030   ZZ=   207.3993
   Eigenvalues:   202.8474   208.3602   227.0690
     13  C    Isotropic =   213.5525   Anisotropy =     8.6763
   XX=   211.1309   YX=     3.5547   ZX=     1.7439
   XY=     1.0968   YY=   211.8363   ZY=     1.0116
   XZ=     4.9194   YZ=    -0.0649   ZZ=   217.6902
   Eigenvalues:   208.5143   212.8064   219.3366
     14  N    Isotropic =   301.8543   Anisotropy =    54.6541
   XX=   279.2055   YX=   -47.0269   ZX=    14.1162
   XY=   -38.0563   YY=   307.1511   ZY=     6.5421
   XZ=    27.5182   YZ=    18.5438   ZZ=   319.2064
   Eigenvalues:   240.9065   326.3661   338.2904
     15  C    Isotropic =   205.2230   Anisotropy =    34.3503
   XX=   200.7223   YX=     3.8623   ZX=    -0.8402
   XY=     4.3418   YY=   210.1378   ZY=    22.4768
   XZ=    -0.2197   YZ=    17.9223   ZZ=   204.8088
   Eigenvalues:   186.4172   201.1286   228.1232
     16  C    Isotropic =   224.1876   Anisotropy =     9.0399
   XX=   228.7785   YX=    -2.8019   ZX=    -0.9911
   XY=    -2.1547   YY=   224.0264   ZY=     0.7747
   XZ=    -0.2981   YZ=     5.8118   ZZ=   219.7578
   Eigenvalues:   217.9299   224.4187   230.2141
     17  C    Isotropic =   215.3617   Anisotropy =    19.5432
   XX=   209.3770   YX=    -1.0301   ZX=     1.9868
   XY=    -3.5377   YY=   220.0618   ZY=    11.0912
   XZ=    -1.8470   YZ=     8.3772   ZZ=   216.6462
   Eigenvalues:   207.2849   210.4097   228.3905
     18  C    Isotropic =   210.3638   Anisotropy =    37.8802
   XX=   211.1606   YX=   -13.5300   ZX=    13.4602
   XY=   -13.8177   YY=   223.8851   ZY=     0.8402
   XZ=    14.1148   YZ=    -8.2233   ZZ=   196.0457
   Eigenvalues:   187.4111   208.0631   235.6173
     19  C    Isotropic =   199.9755   Anisotropy =    40.5578
   XX=   185.4600   YX=    -6.7074   ZX=    12.4716
   XY=   -10.4510   YY=   192.9285   ZY=     4.8182
   XZ=    17.6896   YZ=     2.0400   ZZ=   221.5380
   Eigenvalues:   175.1813   197.7312   227.0141
     20  C    Isotropic =   212.1516   Anisotropy =    20.8107
   XX=   203.6915   YX=     6.9653   ZX=    -1.7765
   XY=     5.3206   YY=   207.0747   ZY=     2.1130
   XZ=    -3.0676   YZ=     1.4814   ZZ=   225.6886
   Eigenvalues:   198.6748   211.7546   226.0254
     21  C    Isotropic =   209.1199   Anisotropy =     9.4840
   XX=   207.0652   YX=     6.3685   ZX=     3.7004
   XY=     5.0463   YY=   207.5964   ZY=    -8.8003
   XZ=     2.3978   YZ=    -0.4415   ZZ=   212.6981
   Eigenvalues:   199.4076   212.5095   215.4426
     22  C    Isotropic =    96.3136   Anisotropy =    98.3696
   XX=   155.7874   YX=     2.4541   ZX=     1.8127
   XY=    -2.2729   YY=   153.2608   ZY=   -48.4187
   XZ=   -10.9272   YZ=   -29.9708   ZZ=   -20.1072
   Eigenvalues:   -28.6632   155.7107   161.8934
     23  O    Isotropic =  -134.2939   Anisotropy =   888.7784
   XX=   186.2601   YX=   437.3906   ZX=   -79.3267
   XY=   449.9935   YY=  -309.4090   ZY=   -41.4984
   XZ=   -94.2168   YZ=   -28.0610   ZZ=  -279.7327
   Eigenvalues:  -570.4780  -290.6286   458.2250
     24  O    Isotropic =   283.5900   Anisotropy =   139.8898
   XX=   314.6327   YX=    34.6957   ZX=  -112.3081
   XY=    65.8877   YY=   300.6133   ZY=   167.8634
   XZ=   -50.1464   YZ=    34.3166   ZZ=   235.5240
   Eigenvalues:   116.1083   357.8118   376.8499
     25  C    Isotropic =   197.3415   Anisotropy =    56.9697
   XX=   183.9212   YX=    -3.3195   ZX=    14.7349
   XY=    -2.6181   YY=   179.5421   ZY=   -10.8836
   XZ=    14.7231   YZ=   -11.1816   ZZ=   228.5612
   Eigenvalues:   177.1596   179.5437   235.3213
     26  C    Isotropic =   209.9646   Anisotropy =    42.2049
   XX=   214.5307   YX=   -18.0117   ZX=   -12.8592
   XY=   -17.9736   YY=   209.5649   ZY=    10.0171
   XZ=   -14.1741   YZ=     7.4732   ZZ=   205.7981
   Eigenvalues:   193.0073   198.7852   238.1012
     27  C    Isotropic =   206.4908   Anisotropy =    15.4415
   XX=   216.5176   YX=     1.4181   ZX=    -1.7069
   XY=     1.3612   YY=   202.4108   ZY=    -6.1810
   XZ=    -0.0201   YZ=    -4.4720   ZZ=   200.5440
   Eigenvalues:   196.0670   206.6202   216.7852
     28  C    Isotropic =   118.1135   Anisotropy =   160.6835
   XX=    84.2236   YX=    22.1576   ZX=   -75.4475
   XY=    16.0215   YY=    89.0530   ZY=    -3.9076
   XZ=   -78.5439   YZ=    -8.9893   ZZ=   181.0639
   Eigenvalues:    37.9849    91.1197   225.2358
     29  C    Isotropic =   128.2121   Anisotropy =   148.3927
   XX=   119.1252   YX=   -21.8720   ZX=   -65.4705
   XY=   -32.9732   YY=    76.5845   ZY=   -31.7621
   XZ=   -59.1791   YZ=   -35.8537   ZZ=   188.9266
   Eigenvalues:    38.0498   119.4460   227.1406
     30  C    Isotropic =   120.2169   Anisotropy =   148.3901
   XX=   129.9072   YX=    26.3359   ZX=   -48.0692
   XY=    26.0082   YY=    38.2247   ZY=    -0.5919
   XZ=   -46.1035   YZ=    -6.9034   ZZ=   192.5186
   Eigenvalues:    30.7741   110.7329   219.1436
     31  C    Isotropic =   127.2786   Anisotropy =   152.9733
   XX=   122.5719   YX=   -25.2065   ZX=   -66.2059
   XY=   -22.1364   YY=    80.5825   ZY=   -22.1009
   XZ=   -79.5287   YZ=   -31.8152   ZZ=   178.6814
   Eigenvalues:    41.3747   111.2003   229.2608
     32  C    Isotropic =   106.6285   Anisotropy =   126.2128
   XX=    85.8221   YX=    20.8009   ZX=   -68.1923
   XY=     5.0927   YY=    91.3765   ZY=    -1.3322
   XZ=   -71.8265   YZ=    -4.6402   ZZ=   142.6867
   Eigenvalues:    37.1563    91.9588   190.7703
     33  C    Isotropic =   114.0638   Anisotropy =   145.6264
   XX=   113.4382   YX=    12.2972   ZX=   -53.8306
   XY=    18.5017   YY=    45.9821   ZY=     1.0878
   XZ=   -50.1677   YZ=    -6.1079   ZZ=   182.7710
   Eigenvalues:    41.9329    89.1104   211.1480
     34  N    Isotropic =   276.3148   Anisotropy =    75.6903
   XX=   275.7611   YX=   -23.2914   ZX=    11.2439
   XY=   -49.5366   YY=   289.8539   ZY=   -14.5588
   XZ=    -4.6823   YZ=   -33.3341   ZZ=   263.3295
   Eigenvalues:   237.7951   264.3743   326.7750
     35  C    Isotropic =   200.1707   Anisotropy =    16.5452
   XX=   208.6324   YX=    -0.4748   ZX=    -2.1483
   XY=     8.4169   YY=   200.0081   ZY=     3.6966
   XZ=     5.8654   YZ=     9.6222   ZZ=   191.8715
   Eigenvalues:   188.1307   201.1805   211.2008
     36  C    Isotropic =   180.0030   Anisotropy =    36.9029
   XX=   178.7643   YX=    21.0105   ZX=     4.7520
   XY=    11.7974   YY=   194.1861   ZY=    -1.8136
   XZ=    16.3067   YZ=   -10.7064   ZZ=   167.0586
   Eigenvalues:   155.4412   179.9629   204.6049
     37  C    Isotropic =   183.1076   Anisotropy =    40.8987
   XX=   167.9894   YX=     2.3834   ZX=   -18.7688
   XY=    -0.6450   YY=   190.2588   ZY=    18.8342
   XZ=   -10.8842   YZ=    15.4554   ZZ=   191.0746
   Eigenvalues:   158.1369   180.8124   210.3734
     38  C    Isotropic =   206.8007   Anisotropy =    31.8983
   XX=   206.0996   YX=    -0.5628   ZX=   -19.2819
   XY=     3.0116   YY=   199.6621   ZY=     0.0335
   XZ=   -14.8750   YZ=    -2.2243   ZZ=   214.6403
   Eigenvalues:   192.7533   199.5824   228.0662
     39  C    Isotropic =   213.2889   Anisotropy =    18.0138
   XX=   211.4228   YX=    -0.2151   ZX=    -2.9242
   XY=    -4.9112   YY=   219.4910   ZY=     8.3474
   XZ=    -1.6213   YZ=     9.2730   ZZ=   208.9531
   Eigenvalues:   203.8839   210.6848   225.2982
     40  C    Isotropic =   211.9091   Anisotropy =    10.3974
   XX=   212.5311   YX=     1.7901   ZX=    -2.0143
   XY=     3.3967   YY=   215.5034   ZY=    -4.6268
   XZ=    -0.7301   YZ=    -4.1735   ZZ=   207.6927
   Eigenvalues:   205.7090   211.1776   218.8407
     41  N    Isotropic =   235.4679   Anisotropy =    24.8765
   XX=   238.1984   YX=   -27.1530   ZX=     9.8579
   XY=    -2.6065   YY=   232.4505   ZY=     9.6685
   XZ=    11.9632   YZ=     3.2058   ZZ=   235.7549
   Eigenvalues:   213.6138   240.7376   252.0522
     42  C    Isotropic =   193.7448   Anisotropy =    50.1077
   XX=   199.6527   YX=    23.1651   ZX=     2.3030
   XY=    28.6572   YY=   202.7170   ZY=     0.0924
   XZ=     0.2357   YZ=    -0.7040   ZZ=   178.8649
   Eigenvalues:   174.9034   179.1811   227.1500
     43  C    Isotropic =   219.5219   Anisotropy =     8.5038
   XX=   209.8981   YX=     3.8632   ZX=    -2.5036
   XY=     1.2271   YY=   223.8634   ZY=     0.2766
   XZ=    -0.5606   YZ=    -0.6855   ZZ=   224.8042
   Eigenvalues:   209.3085   224.0661   225.1912
     44  C    Isotropic =   214.9046   Anisotropy =    21.2123
   XX=   213.3884   YX=     7.5859   ZX=    -1.6234
   XY=    10.1156   YY=   224.0390   ZY=     2.8305
   XZ=    -3.5481   YZ=     0.6808   ZZ=   207.2863
   Eigenvalues:   204.6708   210.9968   229.0461
     45  C    Isotropic =   207.5881   Anisotropy =    34.0703
   XX=   189.3577   YX=     9.3396   ZX=   -14.7820
   XY=     5.5816   YY=   211.8758   ZY=     9.8406
   XZ=    -9.9063   YZ=    13.2237   ZZ=   221.5309
   Eigenvalues:   181.1759   211.2868   230.3017
     46  C    Isotropic =   190.7445   Anisotropy =    52.0665
   XX=   163.5829   YX=    12.3446   ZX=    -3.8292
   XY=     4.2583   YY=   197.0765   ZY=   -22.3500
   XZ=    -6.9308   YZ=   -14.4543   ZZ=   211.5739
   Eigenvalues:   161.6113   185.1666   225.4555
     47  C    Isotropic =   210.9466   Anisotropy =    26.9517
   XX=   227.9253   YX=     4.6833   ZX=    -0.3646
   XY=     4.3542   YY=   207.0798   ZY=    -6.9073
   XZ=     0.7303   YZ=    -6.9196   ZZ=   197.8347
   Eigenvalues:   193.9820   209.9435   228.9144
     48  C    Isotropic =   205.7073   Anisotropy =    16.2011
   XX=   212.0590   YX=    -6.5890   ZX=     0.6573
   XY=    -7.2724   YY=   205.3627   ZY=    -0.0830
   XZ=    -3.3008   YZ=     0.7498   ZZ=   199.7002
   Eigenvalues:   199.4853   201.1286   216.5080
     49  C    Isotropic =    97.0229   Anisotropy =    96.1352
   XX=    60.4250   YX=    84.4906   ZX=    14.3032
   XY=    99.4244   YY=    77.1281   ZY=   -13.2937
   XZ=    -1.3488   YZ=     1.6285   ZZ=   153.5156
   Eigenvalues:   -23.9874   153.9431   161.1130
     50  O    Isotropic =  -118.3830   Anisotropy =   854.0028
   XX=   -87.5364   YX=   165.3485   ZX=   308.5321
   XY=   174.1846   YY=  -123.6191   ZY=   364.0128
   XZ=   307.9852   YZ=   375.5380   ZZ=  -143.9936
   Eigenvalues:  -538.2853  -267.8159   450.9522
     51  O    Isotropic =   286.5877   Anisotropy =   143.2668
   XX=   227.7260   YX=    45.3670   ZX=    90.1529
   XY=   -49.0547   YY=   368.0703   ZY=    26.9545
   XZ=   151.1070   YZ=   -60.6424   ZZ=   263.9666
   Eigenvalues:   123.4855   354.1786   382.0989
     52  C    Isotropic =   197.5821   Anisotropy =    57.0977
   XX=   216.4361   YX=   -18.2671   ZX=   -19.4693
   XY=   -18.0305   YY=   186.1275   ZY=    10.7047
   XZ=   -19.6526   YZ=     9.8547   ZZ=   190.1827
   Eigenvalues:   177.2517   179.8474   235.6472
     53  C    Isotropic =   207.6203   Anisotropy =    43.1523
   XX=   229.8780   YX=     8.8931   ZX=   -10.9766
   XY=     8.1408   YY=   198.6100   ZY=    -1.8660
   XZ=   -15.9853   YZ=    -1.6242   ZZ=   194.3729
   Eigenvalues:   189.6788   196.7937   236.3885
     54  O    Isotropic =    77.2530   Anisotropy =   403.5160
   XX=   268.0463   YX=  -167.7716   ZX=    17.8796
   XY=  -149.1966   YY=    10.4465   ZY=   -11.4769
   XZ=    39.2178   YZ=   -22.7995   ZZ=   -46.7338
   Eigenvalues:   -65.6109   -48.8938   346.2637
     55  H    Isotropic =    25.5192   Anisotropy =    13.0570
   XX=    28.6738   YX=     5.7642   ZX=    -1.9535
   XY=     5.4022   YY=    27.3143   ZY=    -2.0150
   XZ=    -2.6912   YZ=    -1.4120   ZZ=    20.5695
   Eigenvalues:    19.9383    22.3954    34.2239
     56  H    Isotropic =    25.8573   Anisotropy =     6.9656
   XX=    27.0096   YX=    -0.6220   ZX=    -3.9340
   XY=     0.3631   YY=    27.0635   ZY=     1.6174
   XZ=    -5.0031   YZ=     2.2489   ZZ=    23.4988
   Eigenvalues:    20.1118    26.9590    30.5011
     57  H    Isotropic =    26.6497   Anisotropy =     7.9030
   XX=    26.5115   YX=     3.3148   ZX=    -3.0761
   XY=     3.2577   YY=    29.9208   ZY=     2.2237
   XZ=    -3.9117   YZ=     1.9574   ZZ=    23.5167
   Eigenvalues:    19.9135    28.1172    31.9184
     58  H    Isotropic =    31.4315   Anisotropy =     8.3384
   XX=    29.3096   YX=     1.8739   ZX=    -0.9171
   XY=     1.4500   YY=    31.1826   ZY=    -4.7040
   XZ=    -2.2690   YZ=    -2.4981   ZZ=    33.8024
   Eigenvalues:    28.2228    29.0814    36.9904
     59  H    Isotropic =    32.1533   Anisotropy =    14.0553
   XX=    38.0514   YX=    -5.5201   ZX=    -1.0187
   XY=    -6.2699   YY=    30.0457   ZY=     3.6625
   XZ=     0.4286   YZ=     4.1223   ZZ=    28.3628
   Eigenvalues:    24.1611    30.7752    41.5235
     60  H    Isotropic =    32.8508   Anisotropy =     9.0282
   XX=    30.6480   YX=     2.6601   ZX=     1.5829
   XY=    -0.2720   YY=    36.8273   ZY=    -4.5297
   XZ=     3.5967   YZ=    -3.4444   ZZ=    31.0771
   Eigenvalues:    26.8808    32.8020    38.8696
     61  H    Isotropic =    32.3160   Anisotropy =    15.5673
   XX=    41.7915   YX=     0.7018   ZX=     3.6835
   XY=     0.3555   YY=    28.0145   ZY=     1.5939
   XZ=     3.5745   YZ=     1.5911   ZZ=    27.1418
   Eigenvalues:    25.4730    28.7807    42.6941
     62  H    Isotropic =    32.5404   Anisotropy =    13.6732
   XX=    27.9705   YX=    -1.1156   ZX=     3.2372
   XY=    -2.0760   YY=    30.2493   ZY=    -4.0429
   XZ=     3.5169   YZ=    -3.1560   ZZ=    39.4014
   Eigenvalues:    26.8911    29.0742    41.6558
     63  H    Isotropic =    31.7849   Anisotropy =    13.7024
   XX=    29.5020   YX=     1.1457   ZX=    -4.0186
   XY=     0.7049   YY=    26.6979   ZY=     2.1254
   XZ=    -4.6376   YZ=     1.2283   ZZ=    39.1549
   Eigenvalues:    25.6304    28.8045    40.9199
     64  H    Isotropic =    31.8612   Anisotropy =    14.2497
   XX=    35.7333   YX=    -5.8716   ZX=     0.7249
   XY=    -6.6987   YY=    33.8695   ZY=     3.6999
   XZ=     0.7437   YZ=     3.3126   ZZ=    25.9808
   Eigenvalues:    23.7269    30.4957    41.3610
     65  H    Isotropic =    32.6047   Anisotropy =    17.8687
   XX=    28.4908   YX=     1.1355   ZX=     1.5130
   XY=     1.1966   YY=    37.1661   ZY=     9.0371
   XZ=     1.6906   YZ=     9.5604   ZZ=    32.1572
   Eigenvalues:    24.9377    28.3592    44.5172
     66  H    Isotropic =    32.5228   Anisotropy =    10.1189
   XX=    28.2340   YX=     1.4685   ZX=    -0.9350
   XY=     1.2690   YY=    36.5793   ZY=    -3.7249
   XZ=    -1.0089   YZ=    -4.0829   ZZ=    32.7550
   Eigenvalues:    27.9754    30.3242    39.2687
     67  H    Isotropic =    32.6158   Anisotropy =    13.3917
   XX=    27.9381   YX=    -1.0189   ZX=     3.1368
   XY=    -1.3085   YY=    29.1180   ZY=    -0.1885
   XZ=     3.2083   YZ=    -0.0544   ZZ=    40.7914
   Eigenvalues:    26.6918    29.6121    41.5436
     68  H    Isotropic =    32.4517   Anisotropy =    15.1616
   XX=    38.6586   YX=     5.5101   ZX=     2.6778
   XY=     5.4748   YY=    31.2812   ZY=     3.7467
   XZ=     2.0973   YZ=     3.4582   ZZ=    27.4151
   Eigenvalues:    25.1951    29.6005    42.5594
     69  H    Isotropic =    32.6983   Anisotropy =    16.6832
   XX=    43.1061   YX=     0.9474   ZX=     2.6086
   XY=     3.4545   YY=    31.6393   ZY=     0.6906
   XZ=     2.7756   YZ=    -2.3435   ZZ=    23.3496
   Eigenvalues:    22.8455    31.4290    43.8205
     70  H    Isotropic =    33.0230   Anisotropy =     8.9728
   XX=    33.3270   YX=    -2.1819   ZX=    -1.1733
   XY=    -0.7055   YY=    27.0701   ZY=    -1.2061
   XZ=    -0.8684   YZ=    -1.9424   ZZ=    38.6720
   Eigenvalues:    26.4983    33.5659    39.0049
     71  H    Isotropic =    32.0454   Anisotropy =    19.6159
   XX=    41.9463   YX=    -6.1610   ZX=     3.1263
   XY=    -5.8217   YY=    28.9587   ZY=    -0.0333
   XZ=     5.2110   YZ=    -0.9880   ZZ=    25.2311
   Eigenvalues:    24.0003    27.0131    45.1226
     72  H    Isotropic =    31.8927   Anisotropy =     7.8516
   XX=    31.3967   YX=     0.7175   ZX=    -0.9523
   XY=     1.7260   YY=    33.7177   ZY=    -3.9722
   XZ=    -0.5633   YZ=    -4.7274   ZZ=    30.5637
   Eigenvalues:    27.5121    31.0389    37.1271
     73  H    Isotropic =    31.4081   Anisotropy =     8.9323
   XX=    28.3505   YX=    -2.4721   ZX=    -0.0069
   XY=    -2.6963   YY=    35.6370   ZY=    -1.9998
   XZ=    -0.6153   YZ=    -3.4733   ZZ=    30.2369
   Eigenvalues:    27.0269    29.8345    37.3630
     74  H    Isotropic =    32.1932   Anisotropy =    15.1318
   XX=    38.0941   YX=     7.1431   ZX=    -1.4475
   XY=     6.9349   YY=    30.1935   ZY=     1.5579
   XZ=    -2.2123   YZ=     0.9351   ZZ=    28.2920
   Eigenvalues:    24.8810    29.4176    42.2811
     75  H    Isotropic =    31.1743   Anisotropy =    12.9446
   XX=    37.1891   YX=    -1.9467   ZX=    -4.8141
   XY=    -0.3888   YY=    26.4317   ZY=     2.0986
   XZ=    -4.7238   YZ=     1.5110   ZZ=    29.9020
   Eigenvalues:    25.5734    28.1455    39.8040
     76  H    Isotropic =    30.5575   Anisotropy =    12.1072
   XX=    26.2086   YX=    -1.4431   ZX=    -1.9735
   XY=    -1.4955   YY=    29.3837   ZY=     3.7949
   XZ=    -2.7546   YZ=     4.3724   ZZ=    36.0803
   Eigenvalues:    25.5427    27.5008    38.6290
     77  H    Isotropic =    30.6927   Anisotropy =     7.5696
   XX=    34.7146   YX=    -0.1565   ZX=     2.5281
   XY=    -0.4975   YY=    25.4676   ZY=    -0.6808
   XZ=     1.3380   YZ=    -0.9076   ZZ=    31.8960
   Eigenvalues:    25.3700    30.9691    35.7391
     78  H    Isotropic =    30.5835   Anisotropy =    11.6313
   XX=    27.0009   YX=     2.2252   ZX=    -2.5105
   XY=     2.9111   YY=    31.9614   ZY=    -5.0391
   XZ=    -2.6086   YZ=    -4.5358   ZZ=    32.7882
   Eigenvalues:    25.8298    27.5830    38.3377
     79  H    Isotropic =    31.9255   Anisotropy =    12.3271
   XX=    31.8990   YX=    -5.7689   ZX=    -0.0147
   XY=    -6.4602   YY=    35.4004   ZY=    -0.7018
   XZ=     1.7486   YZ=    -1.1181   ZZ=    28.4770
   Eigenvalues:    27.2702    28.3626    40.1436
     80  H    Isotropic =    30.7579   Anisotropy =    14.2044
   XX=    26.6980   YX=     0.7604   ZX=    -1.8137
   XY=     0.4447   YY=    32.1392   ZY=     7.5172
   XZ=    -1.2759   YZ=     7.2250   ZZ=    33.4366
   Eigenvalues:    24.4075    27.6388    40.2276
     81  H    Isotropic =    30.9217   Anisotropy =    10.9792
   XX=    33.3245   YX=     0.8365   ZX=    -7.0844
   XY=    -0.0503   YY=    30.4066   ZY=     1.0023
   XZ=    -6.3698   YZ=     0.3717   ZZ=    29.0339
   Eigenvalues:    24.0214    30.5025    38.2411
     82  H    Isotropic =    30.0258   Anisotropy =     7.9296
   XX=    26.3965   YX=     0.8722   ZX=     0.2444
   XY=     1.3003   YY=    28.6874   ZY=     0.7257
   XZ=     1.3604   YZ=     1.6094   ZZ=    34.9934
   Eigenvalues:    25.9518    28.8134    35.3122
     83  H    Isotropic =    29.8622   Anisotropy =    12.6200
   XX=    27.4623   YX=    -0.3209   ZX=     0.2103
   XY=     0.6663   YY=    37.5718   ZY=    -2.6229
   XZ=    -0.4954   YZ=    -3.5750   ZZ=    24.5524
   Eigenvalues:    23.8496    27.4615    38.2755
     84  H    Isotropic =    26.2363   Anisotropy =    13.5794
   XX=    31.9450   YX=    -4.3156   ZX=     1.4426
   XY=    -4.2285   YY=    27.7658   ZY=    -1.3720
   XZ=     4.0783   YZ=    -2.3367   ZZ=    18.9981
   Eigenvalues:    18.3183    25.1014    35.2892
     85  H    Isotropic =    25.6745   Anisotropy =     6.5807
   XX=    27.9641   YX=     1.9110   ZX=     2.5897
   XY=     1.0865   YY=    27.7377   ZY=     0.4552
   XZ=     3.0688   YZ=     0.4692   ZZ=    21.3217
   Eigenvalues:    20.2790    26.6829    30.0616
     86  H    Isotropic =    25.9705   Anisotropy =     7.9023
   XX=    26.5743   YX=    -1.0676   ZX=     2.1801
   XY=    -0.9107   YY=    30.9861   ZY=     0.2791
   XZ=     2.2560   YZ=    -0.6367   ZZ=    20.3512
   Eigenvalues:    19.6400    27.0328    31.2387
     87  H    Isotropic =    31.8822   Anisotropy =    11.9321
   XX=    39.2576   YX=    -0.3064   ZX=     2.1758
   XY=    -1.5575   YY=    30.6518   ZY=    -0.0365
   XZ=     2.8123   YZ=    -2.1113   ZZ=    25.7374
   Eigenvalues:    25.1448    30.6649    39.8370
     88  H    Isotropic =    33.0590   Anisotropy =     8.6065
   XX=    31.0470   YX=    -3.5742   ZX=    -5.0113
   XY=    -4.4328   YY=    36.3271   ZY=     1.1057
   XZ=    -0.5320   YZ=    -0.8654   ZZ=    31.8027
   Eigenvalues:    27.5093    32.8710    38.7966
     89  H    Isotropic =    31.7345   Anisotropy =    14.1580
   XX=    28.1885   YX=     2.6338   ZX=     2.0415
   XY=     1.8075   YY=    27.9606   ZY=     3.8931
   XZ=     4.2034   YZ=     3.4182   ZZ=    39.0545
   Eigenvalues:    25.8202    28.2102    41.1732
     90  H    Isotropic =    32.4547   Anisotropy =    14.5115
   XX=    28.3541   YX=     1.4143   ZX=    -3.3144
   XY=     1.3746   YY=    27.9100   ZY=    -1.7610
   XZ=    -2.5128   YZ=    -2.4709   ZZ=    41.0999
   Eigenvalues:    26.7120    28.5230    42.1290
     91  H    Isotropic =    33.4509   Anisotropy =    14.9026
   XX=    42.7973   YX=    -2.3687   ZX=    -1.1828
   XY=    -3.3104   YY=    29.3347   ZY=     1.0066
   XZ=     0.1867   YZ=    -1.2352   ZZ=    28.2207
   Eigenvalues:    28.1354    28.8313    43.3860
     92  H    Isotropic =    30.8676   Anisotropy =    13.3233
   XX=    26.5174   YX=     1.6822   ZX=    -0.7369
   XY=     0.2413   YY=    33.9511   ZY=     6.7168
   XZ=    -0.7694   YZ=     6.5656   ZZ=    32.1344
   Eigenvalues:    25.2238    27.6293    39.7498
     93  H    Isotropic =    31.8168   Anisotropy =    14.7099
   XX=    40.3100   YX=     0.0817   ZX=     4.1870
   XY=     1.0888   YY=    28.2453   ZY=     0.1334
   XZ=     4.5299   YZ=    -0.2862   ZZ=    26.8952
   Eigenvalues:    25.5818    28.2452    41.6234
     94  H    Isotropic =    31.1768   Anisotropy =    13.9249
   XX=    31.8696   YX=    -5.8321   ZX=     1.0952
   XY=    -6.1897   YY=    35.9102   ZY=    -1.2589
   XZ=     1.7406   YZ=    -1.2196   ZZ=    25.7507
   Eigenvalues:    25.4367    27.6337    40.4601
     95  H    Isotropic =    32.3401   Anisotropy =    15.6752
   XX=    32.9444   YX=     7.5953   ZX=    -0.4892
   XY=     6.9716   YY=    37.3555   ZY=    -0.8069
   XZ=     0.2913   YZ=    -0.7814   ZZ=    26.7205
   Eigenvalues:    26.5361    27.6940    42.7902
     96  H    Isotropic =    32.2134   Anisotropy =    14.4204
   XX=    27.2482   YX=     1.6054   ZX=     0.5719
   XY=     1.5775   YY=    32.7429   ZY=    -6.7859
   XZ=     1.1082   YZ=    -6.9188   ZZ=    36.6489
   Eigenvalues:    25.6230    29.1901    41.8270
     97  H    Isotropic =    32.8322   Anisotropy =    14.7242
   XX=    42.3593   YX=     0.1603   ZX=    -2.6421
   XY=     0.1278   YY=    29.1773   ZY=     0.8381
   XZ=    -1.6119   YZ=    -0.0238   ZZ=    26.9600
   Eigenvalues:    26.6021    29.2461    42.6483
     98  H    Isotropic =    32.7854   Anisotropy =    10.5178
   XX=    28.6805   YX=    -0.2786   ZX=    -3.2476
   XY=     2.1010   YY=    33.9094   ZY=    -4.9688
   XZ=    -3.5893   YZ=    -2.7947   ZZ=    35.7663
   Eigenvalues:    27.2279    31.3311    39.7973
     99  H    Isotropic =    31.1987   Anisotropy =    12.7045
   XX=    39.3844   YX=    -1.9163   ZX=    -1.6672
   XY=     0.1934   YY=    25.7616   ZY=     1.6902
   XZ=    -1.3646   YZ=     0.9961   ZZ=    28.4501
   Eigenvalues:    25.2021    28.7256    39.6684
    100  H    Isotropic =    30.9555   Anisotropy =    14.5472
   XX=    27.3004   YX=    -1.5148   ZX=    -3.4550
   XY=    -0.3488   YY=    28.4228   ZY=     4.1443
   XZ=    -4.6791   YZ=     5.8021   ZZ=    37.1434
   Eigenvalues:    25.3108    26.9021    40.6537
    101  H    Isotropic =    31.4933   Anisotropy =    10.5470
   XX=    33.5442   YX=    -1.3935   ZX=     4.4675
   XY=    -1.5444   YY=    28.4602   ZY=    -1.7869
   XZ=     5.7713   YZ=    -0.6994   ZZ=    32.4754
   Eigenvalues:    27.8484    28.1068    38.5246
    102  H    Isotropic =    30.2407   Anisotropy =    11.1797
   XX=    33.2984   YX=    -4.0081   ZX=     0.4938
   XY=    -4.1618   YY=    33.8782   ZY=    -0.0090
   XZ=     2.0542   YZ=     1.3478   ZZ=    23.5455
   Eigenvalues:    23.2279    29.8004    37.6939
    103  H    Isotropic =    31.6997   Anisotropy =    14.2991
   XX=    29.7548   YX=    -0.3073   ZX=     3.0466
   XY=    -0.6382   YY=    27.6674   ZY=    -5.4738
   XZ=     4.1526   YZ=    -5.6964   ZZ=    37.6768
   Eigenvalues:    24.9078    28.9588    41.2324
    104  H    Isotropic =    31.1559   Anisotropy =    13.6178
   XX=    32.0303   YX=     1.3287   ZX=     7.2904
   XY=     0.0590   YY=    27.2928   ZY=     2.3783
   XZ=     6.2319   YZ=     1.6438   ZZ=    34.1446
   Eigenvalues:    25.7595    27.4737    40.2344
    105  H    Isotropic =    30.6577   Anisotropy =    11.5170
   XX=    37.8648   YX=     1.8728   ZX=     0.0522
   XY=     2.3797   YY=    28.6285   ZY=    -0.0568
   XZ=    -0.5175   YZ=    -0.1744   ZZ=    25.4798
   Eigenvalues:    25.4733    28.1640    38.3357
    106  H    Isotropic =    30.6775   Anisotropy =    12.6963
   XX=    31.4892   YX=    -5.8344   ZX=     1.5636
   XY=    -5.4149   YY=    33.9274   ZY=    -3.0534
   XZ=     1.0213   YZ=    -2.3387   ZZ=    26.6158
   Eigenvalues:    25.6070    27.2836    39.1417
    107  H    Isotropic =    30.5983   Anisotropy =     7.3132
   XX=    30.6320   YX=    -2.1557   ZX=    -0.1306
   XY=    -2.6728   YY=    27.7244   ZY=     2.8876
   XZ=    -0.5329   YZ=     4.0404   ZZ=    33.4386
   Eigenvalues:    25.2841    31.0371    35.4738
    108  H    Isotropic =    31.6101   Anisotropy =     9.8724
   XX=    33.0474   YX=     2.1568   ZX=    -4.3896
   XY=     2.4403   YY=    28.9829   ZY=     1.0619
   XZ=    -6.0697   YZ=     2.0428   ZZ=    32.8001
   Eigenvalues:    25.5360    31.1026    38.1917
    109  H    Isotropic =    31.7811   Anisotropy =    12.4104
   XX=    38.8952   YX=     1.9601   ZX=     5.0531
   XY=    -0.0643   YY=    30.5554   ZY=    -1.9260
   XZ=     2.9239   YZ=    -0.6674   ZZ=    25.8927
   Eigenvalues:    24.3975    30.8912    40.0547
    110  H    Isotropic =    31.2147   Anisotropy =    15.1730
   XX=    32.1843   YX=     5.6684   ZX=     0.6549
   XY=     4.6807   YY=    38.3043   ZY=    -0.6498
   XZ=    -1.6561   YZ=    -1.4516   ZZ=    23.1555
   Eigenvalues:    23.0802    29.2339    41.3300
 End of Minotr F.D. properties file   721 does not exist.
 End of Minotr F.D. properties file   722 does not exist.
 End of Minotr F.D. properties file   788 does not exist.
 Hyperfine terms turned off by default for NAtoms > 100.

 **********************************************************************

            Population analysis using the SCF Density.

 **********************************************************************

 Orbital symmetries:
       Occupied  (A) (A) (A) (A) (A) (A) (A) (A) (A) (A) (A) (A)
                 (A) (A) (A) (A) (A) (A) (A) (A) (A) (A) (A) (A)
                 (A) (A) (A) (A) (A) (A) (A) (A) (A) (A) (A) (A)
                 (A) (A) (A) (A) (A) (A) (A) (A) (A) (A) (A) (A)
                 (A) (A) (A) (A) (A) (A) (A) (A) (A) (A) (A) (A)
                 (A) (A) (A) (A) (A) (A) (A) (A) (A) (A) (A) (A)
                 (A) (A) (A) (A) (A) (A) (A) (A) (A) (A) (A) (A)
                 (A) (A) (A) (A) (A) (A) (A) (A) (A) (A) (A) (A)
                 (A) (A) (A) (A) (A) (A) (A) (A) (A) (A) (A) (A)
                 (A) (A) (A) (A) (A) (A) (A) (A) (A) (A) (A) (A)
                 (A) (A) (A) (A) (A) (A) (A) (A) (A) (A) (A) (A)
                 (A) (A) (A) (A) (A) (A) (A) (A) (A) (A) (A) (A)
                 (A) (A) (A) (A) (A) (A) (A) (A) (A) (A) (A) (A)
                 (A) (A) (A) (A) (A) (A) (A) (A) (A) (A) (A) (A)
                 (A) (A) (A) (A) (A) (A) (A) (A) (A) (A) (A) (A)
                 (A) (A) (A) (A) (A) (A) (A) (A) (A) (A) (A) (A)
                 (A) (A) (A) (A) (A)
       Virtual   (A) (A) (A) (A) (A) (A) (A) (A) (A) (A) (A) (A)
                 (A) (A) (A) (A) (A) (A) (A) (A) (A) (A) (A) (A)
                 (A) (A) (A) (A) (A) (A) (A) (A) (A) (A) (A) (A)
                 (A) (A) (A) (A) (A) (A) (A) (A) (A) (A) (A) (A)
                 (A) (A) (A) (A) (A) (A) (A) (A) (A) (A) (A) (A)
                 (A) (A) (A) (A) (A) (A) (A) (A) (A) (A) (A) (A)
                 (A) (A) (A) (A) (A) (A) (A) (A) (A) (A) (A) (A)
                 (A) (A) (A) (A) (A) (A) (A) (A) (A) (A) (A) (A)
                 (A) (A) (A) (A) (A) (A) (A) (A) (A) (A) (A) (A)
                 (A) (A) (A) (A) (A) (A) (A) (A) (A) (A) (A) (A)
                 (A) (A) (A) (A) (A) (A) (A) (A) (A)
 The electronic state is 1-A.
 Alpha  occ. eigenvalues --  -20.30887 -20.28634 -20.24868 -20.22684 -19.92118
 Alpha  occ. eigenvalues --  -15.48133 -15.33835 -15.32325 -15.31200 -11.16799
 Alpha  occ. eigenvalues --  -11.15045 -11.10759 -11.09766 -11.09493 -11.09146
 Alpha  occ. eigenvalues --  -11.08871 -11.08575 -11.08530 -11.08176 -11.07532
 Alpha  occ. eigenvalues --  -11.07397 -11.06773 -11.06711 -11.06202 -11.06114
 Alpha  occ. eigenvalues --  -11.06078 -11.05937 -11.05865 -11.05763 -11.05668
 Alpha  occ. eigenvalues --  -11.05043 -11.04788 -11.04748 -11.04717 -11.04661
 Alpha  occ. eigenvalues --  -11.04579 -11.04512 -11.04387 -11.04316 -11.04263
 Alpha  occ. eigenvalues --  -11.04247 -11.03514 -11.03046 -11.02920 -11.02894
 Alpha  occ. eigenvalues --  -11.02377 -11.02187 -11.02096 -11.02091 -11.02015
 Alpha  occ. eigenvalues --  -11.01969 -11.01905 -11.01792 -11.01624  -1.38107
 Alpha  occ. eigenvalues --   -1.35978  -1.29472  -1.27927  -1.25863  -1.21809
 Alpha  occ. eigenvalues --   -1.19998  -1.19340  -1.10183  -1.10036  -1.09060
 Alpha  occ. eigenvalues --   -1.07621  -1.05813  -1.05277  -1.02682  -1.01106
 Alpha  occ. eigenvalues --   -0.99316  -0.98638  -0.98407  -0.97546  -0.97205
 Alpha  occ. eigenvalues --   -0.96181  -0.95042  -0.94961  -0.94048  -0.92561
 Alpha  occ. eigenvalues --   -0.91902  -0.91651  -0.89362  -0.89130  -0.87787
 Alpha  occ. eigenvalues --   -0.86545  -0.84622  -0.82751  -0.82262  -0.80647
 Alpha  occ. eigenvalues --   -0.80345  -0.80009  -0.78141  -0.78100  -0.77687
 Alpha  occ. eigenvalues --   -0.77062  -0.74520  -0.74129  -0.72926  -0.72426
 Alpha  occ. eigenvalues --   -0.71519  -0.70368  -0.69758  -0.68161  -0.66286
 Alpha  occ. eigenvalues --   -0.65303  -0.64919  -0.64448  -0.63727  -0.62941
 Alpha  occ. eigenvalues --   -0.62541  -0.62152  -0.61600  -0.61233  -0.61030
 Alpha  occ. eigenvalues --   -0.60953  -0.60141  -0.59036  -0.58897  -0.58612
 Alpha  occ. eigenvalues --   -0.58373  -0.58195  -0.57727  -0.57598  -0.57284
 Alpha  occ. eigenvalues --   -0.57107  -0.56734  -0.56040  -0.55689  -0.55560
 Alpha  occ. eigenvalues --   -0.55160  -0.55023  -0.54766  -0.54388  -0.54250
 Alpha  occ. eigenvalues --   -0.54196  -0.53526  -0.53207  -0.52390  -0.52085
 Alpha  occ. eigenvalues --   -0.51638  -0.51452  -0.51234  -0.50776  -0.50185
 Alpha  occ. eigenvalues --   -0.50045  -0.49856  -0.49308  -0.49027  -0.48589
 Alpha  occ. eigenvalues --   -0.48412  -0.48180  -0.47762  -0.47480  -0.46710
 Alpha  occ. eigenvalues --   -0.46458  -0.46337  -0.45960  -0.45757  -0.45251
 Alpha  occ. eigenvalues --   -0.45023  -0.44839  -0.44753  -0.44156  -0.43909
 Alpha  occ. eigenvalues --   -0.43823  -0.43301  -0.42982  -0.42773  -0.42666
 Alpha  occ. eigenvalues --   -0.41896  -0.41738  -0.41380  -0.41279  -0.40962
 Alpha  occ. eigenvalues --   -0.40228  -0.39887  -0.38839  -0.38525  -0.37828
 Alpha  occ. eigenvalues --   -0.37752  -0.37105  -0.36832  -0.35600  -0.34455
 Alpha  occ. eigenvalues --   -0.33590  -0.32422  -0.31614  -0.31227  -0.30716
 Alpha  occ. eigenvalues --   -0.27638  -0.27098  -0.26657  -0.22425  -0.20976
 Alpha  occ. eigenvalues --   -0.16079  -0.15589
 Alpha virt. eigenvalues --    0.26233   0.26705   0.27292   0.28835   0.30156
 Alpha virt. eigenvalues --    0.32628   0.45727   0.47871   0.47889   0.48880
 Alpha virt. eigenvalues --    0.49552   0.49975   0.50346   0.51236   0.51911
 Alpha virt. eigenvalues --    0.53695   0.54497   0.54620   0.55282   0.55806
 Alpha virt. eigenvalues --    0.56718   0.56986   0.57441   0.58393   0.58991
 Alpha virt. eigenvalues --    0.59212   0.59375   0.60012   0.60225   0.60609
 Alpha virt. eigenvalues --    0.61167   0.61901   0.62610   0.62823   0.62948
 Alpha virt. eigenvalues --    0.63289   0.63611   0.63933   0.64283   0.64515
 Alpha virt. eigenvalues --    0.64631   0.64972   0.65043   0.65468   0.66272
 Alpha virt. eigenvalues --    0.66334   0.66498   0.66599   0.66836   0.67195
 Alpha virt. eigenvalues --    0.67457   0.67618   0.67799   0.68154   0.68624
 Alpha virt. eigenvalues --    0.68710   0.69263   0.69361   0.69491   0.70124
 Alpha virt. eigenvalues --    0.70170   0.70424   0.70858   0.71077   0.71112
 Alpha virt. eigenvalues --    0.71269   0.71398   0.72057   0.72311   0.72516
 Alpha virt. eigenvalues --    0.72589   0.73226   0.73406   0.73553   0.73718
 Alpha virt. eigenvalues --    0.73934   0.74201   0.74338   0.74606   0.74708
 Alpha virt. eigenvalues --    0.75192   0.75500   0.75612   0.75974   0.76209
 Alpha virt. eigenvalues --    0.76400   0.76686   0.77084   0.77290   0.77541
 Alpha virt. eigenvalues --    0.77796   0.78110   0.78576   0.78768   0.79034
 Alpha virt. eigenvalues --    0.79295   0.79594   0.80076   0.80203   0.80344
 Alpha virt. eigenvalues --    0.80995   0.81408   0.81466   0.81781   0.82232
 Alpha virt. eigenvalues --    0.82345   0.83673   0.83950   0.84462   0.84631
 Alpha virt. eigenvalues --    0.85763   0.86008   0.86199   0.86972   0.87272
 Alpha virt. eigenvalues --    0.88534   0.88999   0.90520   0.91151   0.93096
 Alpha virt. eigenvalues --    0.94012   0.95093   0.97704   1.01148   1.03384
 Alpha virt. eigenvalues --    1.10474   1.11242   1.15428   1.15830
          Condensed to atoms (all electrons):
 Mulliken charges:
               1
     1  C   -0.074980
     2  C    0.000658
     3  C   -0.061169
     4  C   -0.088776
     5  C    0.089501
     6  C   -0.013568
     7  N   -0.286640
     8  C    0.017891
     9  C    0.128289
    10  C    0.039548
    11  C   -0.114906
    12  C   -0.105479
    13  C    0.028028
    14  N   -0.291785
    15  C   -0.015849
    16  C   -0.108223
    17  C   -0.102117
    18  C   -0.104724
    19  C   -0.020911
    20  C   -0.110634
    21  C   -0.066585
    22  C    0.319821
    23  O   -0.277469
    24  O   -0.255250
    25  C   -0.055817
    26  C   -0.078951
    27  C   -0.109824
    28  C    0.008819
    29  C   -0.081197
    30  C   -0.065323
    31  C   -0.076209
    32  C    0.081183
    33  C   -0.011481
    34  N   -0.281071
    35  C    0.005879
    36  C    0.123657
    37  C    0.041573
    38  C   -0.100820
    39  C   -0.107491
    40  C    0.039733
    41  N   -0.081003
    42  C   -0.004806
    43  C   -0.097868
    44  C   -0.099466
    45  C   -0.105561
    46  C   -0.004747
    47  C   -0.096610
    48  C   -0.058717
    49  C    0.330359
    50  O   -0.283992
    51  O   -0.257280
    52  C   -0.054814
    53  C   -0.083382
    54  O   -0.463101
    55  H    0.061438
    56  H    0.057484
    57  H    0.059294
    58  H    0.056561
    59  H    0.051360
    60  H    0.054808
    61  H    0.048995
    62  H    0.050738
    63  H    0.053834
    64  H    0.059919
    65  H    0.054786
    66  H    0.051101
    67  H    0.050523
    68  H    0.052280
    69  H    0.059809
    70  H    0.065055
    71  H    0.052153
    72  H    0.054152
    73  H    0.067456
    74  H    0.051959
    75  H    0.065493
    76  H    0.077804
    77  H    0.074753
    78  H    0.072644
    79  H    0.055670
    80  H    0.072450
    81  H    0.076492
    82  H    0.058992
    83  H    0.058951
    84  H    0.055020
    85  H    0.056678
    86  H    0.065844
    87  H    0.055688
    88  H    0.058936
    89  H    0.053905
    90  H    0.052958
    91  H    0.046677
    92  H    0.083761
    93  H    0.059587
    94  H    0.079754
    95  H    0.057981
    96  H    0.058557
    97  H    0.048048
    98  H    0.063257
    99  H    0.098383
   100  H    0.089105
   101  H    0.057623
   102  H    0.096865
   103  H    0.046977
   104  H    0.069336
   105  H    0.067785
   106  H    0.074012
   107  H    0.079591
   108  H    0.065414
   109  H    0.069699
   110  H    0.065260
 Sum of Mulliken charges =  -0.00000
 Mulliken charges with hydrogens summed into heavy atoms:
               1
     1  C   -0.013542
     2  C    0.000658
     3  C   -0.003685
     4  C   -0.029481
     5  C    0.089501
     6  C   -0.013568
     7  N   -0.286640
     8  C    0.017891
     9  C    0.128289
    10  C    0.096108
    11  C   -0.008738
    12  C   -0.005747
    13  C    0.028028
    14  N   -0.291785
    15  C    0.097904
    16  C   -0.002335
    17  C    0.000687
    18  C    0.020140
    19  C    0.085394
    20  C    0.008780
    21  C   -0.001092
    22  C    0.319821
    23  O   -0.277469
    24  O   -0.255250
    25  C    0.169383
    26  C    0.125661
    27  C    0.008119
    28  C    0.008819
    29  C   -0.026177
    30  C   -0.008645
    31  C   -0.010365
    32  C    0.081183
    33  C   -0.011481
    34  N   -0.281071
    35  C    0.005879
    36  C    0.123657
    37  C    0.097262
    38  C    0.012022
    39  C   -0.007857
    40  C    0.039733
    41  N   -0.081003
    42  C    0.138542
    43  C    0.039868
    44  C    0.007138
    45  C    0.056080
    46  C    0.141981
    47  C    0.047231
    48  C    0.010620
    49  C    0.330359
    50  O   -0.283992
    51  O   -0.257280
    52  C    0.166574
    53  C    0.116991
    54  O   -0.463101
 Electronic spatial extent (au):  <R**2>=          36709.8966
 Charge=             -0.0000 electrons
 Dipole moment (field-independent basis, Debye):
    X=             -5.5988    Y=              0.2619    Z=             -0.2459  Tot=              5.6103
 Quadrupole moment (field-independent basis, Debye-Ang):
   XX=           -300.5742   YY=           -302.2620   ZZ=           -292.6608
   XY=              3.8474   XZ=              2.1242   YZ=              1.3483
 Traceless Quadrupole moment (field-independent basis, Debye-Ang):
   XX=             -2.0752   YY=             -3.7630   ZZ=              5.8382
   XY=              3.8474   XZ=              2.1242   YZ=              1.3483
 Octapole moment (field-independent basis, Debye-Ang**2):
  XXX=           -133.7414  YYY=             -9.9856  ZZZ=             54.7548  XYY=             -2.8614
  XXY=              1.1354  XXZ=             53.5544  XZZ=            -10.3931  YZZ=            -22.8889
  YYZ=             -2.3863  XYZ=            -23.1503
 Hexadecapole moment (field-independent basis, Debye-Ang**3):
 XXXX=         -30842.5612 YYYY=          -9045.4020 ZZZZ=          -4706.9962 XXXY=           -179.2816
 XXXZ=             -4.7335 YYYX=            -65.8370 YYYZ=             41.6961 ZZZX=           -355.1234
 ZZZY=              8.4369 XXYY=          -6843.4206 XXZZ=          -6031.6178 YYZZ=          -2397.8797
 XXYZ=              6.7188 YYXZ=            -43.9711 ZZXY=            -40.3676
 N-N= 8.180955849091D+03 E-N=-2.173831007876D+04  KE= 2.279182319420D+03
 ******************************Gaussian NBO Version 3.1******************************
             N A T U R A L   A T O M I C   O R B I T A L   A N D
          N A T U R A L   B O N D   O R B I T A L   A N A L Y S I S
 ******************************Gaussian NBO Version 3.1******************************
       /RESON  / : Allow strongly delocalized NBO set
       /NLMO   / : Form Natural Localized Molecular Orbitals
       /NMR /    : Analyze NMR Sheilding Tensor 

 Analyzing the SCF density

 Job title: Pleiokomenine_C_2                                               

 Storage needed:    355564 in NPA,    438187 in NBO,   2133784 in NLMO ( 104796000 available)
 GSVD:  LWork=     -108884 too small for GESVD, short by      536270 words or      536270 for optimal perf.


 NATURAL POPULATIONS:  Natural atomic orbital occupancies 
                                                          
   NAO  Atom  No  lang   Type(AO)    Occupancy      Energy
 ----------------------------------------------------------
     1    C    1  S      Cor( 1S)     1.99992     -10.94584
     2    C    1  S      Val( 2S)     1.07892      -0.17742
     3    C    1  px     Val( 2p)     0.99237       0.08759
     4    C    1  py     Val( 2p)     0.98317       0.14145
     5    C    1  pz     Val( 2p)     1.00239       0.08897
 
     6    C    2  S      Cor( 1S)     1.99990     -10.95660
     7    C    2  S      Val( 2S)     1.07793      -0.18379
     8    C    2  px     Val( 2p)     0.95987       0.10934
     9    C    2  py     Val( 2p)     0.96695       0.15593
    10    C    2  pz     Val( 2p)     0.98094       0.10013
 
    11    C    3  S      Cor( 1S)     1.99994     -10.94825
    12    C    3  S      Val( 2S)     1.08373      -0.18250
    13    C    3  px     Val( 2p)     0.98496       0.09578
    14    C    3  py     Val( 2p)     0.98349       0.13722
    15    C    3  pz     Val( 2p)     0.98062       0.09962
 
    16    C    4  S      Cor( 1S)     1.99993     -10.94175
    17    C    4  S      Val( 2S)     1.07195      -0.17375
    18    C    4  px     Val( 2p)     1.01725       0.08207
    19    C    4  py     Val( 2p)     0.98228       0.14307
    20    C    4  pz     Val( 2p)     1.01410       0.08748
 
    21    C    5  S      Cor( 1S)     1.99985     -10.98869
    22    C    5  S      Val( 2S)     1.05909      -0.18489
    23    C    5  px     Val( 2p)     0.92952       0.09710
    24    C    5  py     Val( 2p)     0.96327       0.14984
    25    C    5  pz     Val( 2p)     0.93579       0.09279
 
    26    C    6  S      Cor( 1S)     1.99990     -10.94730
    27    C    6  S      Val( 2S)     1.08288      -0.18841
    28    C    6  px     Val( 2p)     1.00022       0.09376
    29    C    6  py     Val( 2p)     0.95000       0.14388
    30    C    6  pz     Val( 2p)     0.99191       0.10145
 
    31    N    7  S      Cor( 1S)     1.99998     -15.27065
    32    N    7  S      Val( 2S)     1.40389      -0.59587
    33    N    7  px     Val( 2p)     1.19792      -0.03497
    34    N    7  py     Val( 2p)     1.17631      -0.02981
    35    N    7  pz     Val( 2p)     1.49694      -0.15094
 
    36    C    8  S      Cor( 1S)     1.99996     -11.00986
    37    C    8  S      Val( 2S)     1.10903      -0.23519
    38    C    8  px     Val( 2p)     0.94147       0.09972
    39    C    8  py     Val( 2p)     0.96402       0.10623
    40    C    8  pz     Val( 2p)     0.96603       0.07984
 
    41    C    9  S      Cor( 1S)     1.99996     -11.05303
    42    C    9  S      Val( 2S)     1.11112      -0.25835
    43    C    9  px     Val( 2p)     0.94769       0.08309
    44    C    9  py     Val( 2p)     0.87249       0.10957
    45    C    9  pz     Val( 2p)     0.89723       0.09202
 
    46    C   10  S      Cor( 1S)     1.99993     -11.02175
    47    C   10  S      Val( 2S)     1.09733      -0.22403
    48    C   10  px     Val( 2p)     0.90761       0.11188
    49    C   10  py     Val( 2p)     0.92915       0.08480
    50    C   10  pz     Val( 2p)     0.99275       0.07989
 
    51    C   11  S      Cor( 1S)     1.99994     -10.98372
    52    C   11  S      Val( 2S)     1.10368      -0.21796
    53    C   11  px     Val( 2p)     1.00363       0.07813
    54    C   11  py     Val( 2p)     0.99294       0.08387
    55    C   11  pz     Val( 2p)     0.98500       0.08029
 
    56    C   12  S      Cor( 1S)     1.99996     -10.98199
    57    C   12  S      Val( 2S)     1.09170      -0.20438
    58    C   12  px     Val( 2p)     1.00315       0.08467
    59    C   12  py     Val( 2p)     0.98059       0.08382
    60    C   12  pz     Val( 2p)     0.99804       0.08604
 
    61    C   13  S      Cor( 1S)     1.99998     -11.00875
    62    C   13  S      Val( 2S)     1.10498      -0.23239
    63    C   13  px     Val( 2p)     0.95286       0.09778
    64    C   13  py     Val( 2p)     0.94839       0.10495
    65    C   13  pz     Val( 2p)     0.94336       0.10308
 
    66    N   14  S      Cor( 1S)     1.99999     -15.24517
    67    N   14  S      Val( 2S)     1.42831      -0.58972
    68    N   14  px     Val( 2p)     1.50199      -0.14252
    69    N   14  py     Val( 2p)     1.20660      -0.02188
    70    N   14  pz     Val( 2p)     1.14275       0.00528
 
    71    C   15  S      Cor( 1S)     1.99994     -11.01396
    72    C   15  S      Val( 2S)     1.06989      -0.19625
    73    C   15  px     Val( 2p)     0.98454       0.08223
    74    C   15  py     Val( 2p)     0.93082       0.10314
    75    C   15  pz     Val( 2p)     0.97697       0.07814
 
    76    C   16  S      Cor( 1S)     1.99997     -10.98171
    77    C   16  S      Val( 2S)     1.08106      -0.19511
    78    C   16  px     Val( 2p)     0.97928       0.08791
    79    C   16  py     Val( 2p)     0.99176       0.08711
    80    C   16  pz     Val( 2p)     1.02255       0.08191
 
    81    C   17  S      Cor( 1S)     1.99996     -10.98399
    82    C   17  S      Val( 2S)     1.08582      -0.19942
    83    C   17  px     Val( 2p)     0.99803       0.08564
    84    C   17  py     Val( 2p)     0.98521       0.08650
    85    C   17  pz     Val( 2p)     0.99948       0.08453
 
    86    C   18  S      Cor( 1S)     1.99995     -10.98076
    87    C   18  S      Val( 2S)     1.09242      -0.20147
    88    C   18  px     Val( 2p)     1.00121       0.08211
    89    C   18  py     Val( 2p)     0.97333       0.08240
    90    C   18  pz     Val( 2p)     1.00750       0.09407
 
    91    C   19  S      Cor( 1S)     1.99994     -11.00597
    92    C   19  S      Val( 2S)     1.07173      -0.19071
    93    C   19  px     Val( 2p)     1.01796       0.07633
    94    C   19  py     Val( 2p)     0.99361       0.08500
    95    C   19  pz     Val( 2p)     0.88448       0.10923
 
    96    C   20  S      Cor( 1S)     1.99992     -10.98819
    97    C   20  S      Val( 2S)     1.09975      -0.21607
    98    C   20  px     Val( 2p)     1.02607       0.07069
    99    C   20  py     Val( 2p)     0.98323       0.08746
   100    C   20  pz     Val( 2p)     0.96489       0.08115
 
   101    C   21  S      Cor( 1S)     1.99994     -11.01160
   102    C   21  S      Val( 2S)     1.11080      -0.24224
   103    C   21  px     Val( 2p)     1.01284       0.06078
   104    C   21  py     Val( 2p)     0.99266       0.06530
   105    C   21  pz     Val( 2p)     0.96828       0.07767
 
   106    C   22  S      Cor( 1S)     1.99991     -11.11507
   107    C   22  S      Val( 2S)     1.05471      -0.26388
   108    C   22  px     Val( 2p)     0.85653       0.03121
   109    C   22  py     Val( 2p)     0.81063       0.14089
   110    C   22  pz     Val( 2p)     0.87506       0.09410
 
   111    O   23  S      Cor( 1S)     1.99999     -20.10138
   112    O   23  S      Val( 2S)     1.80818      -1.06124
   113    O   23  px     Val( 2p)     1.29653      -0.13390
   114    O   23  py     Val( 2p)     1.33900      -0.12492
   115    O   23  pz     Val( 2p)     1.86798      -0.33143
 
   116    O   24  S      Cor( 1S)     1.99999     -20.21821
   117    O   24  S      Val( 2S)     1.72997      -1.03068
   118    O   24  px     Val( 2p)     1.74805      -0.33545
   119    O   24  py     Val( 2p)     1.64077      -0.28944
   120    O   24  pz     Val( 2p)     1.14804      -0.06794
 
   121    C   25  S      Cor( 1S)     1.99984     -11.04792
   122    C   25  S      Val( 2S)     1.07710      -0.22963
   123    C   25  px     Val( 2p)     1.01395       0.04378
   124    C   25  py     Val( 2p)     1.02941       0.03916
   125    C   25  pz     Val( 2p)     0.84509       0.07322
 
   126    C   26  S      Cor( 1S)     1.99992     -11.01757
   127    C   26  S      Val( 2S)     1.06536      -0.19803
   128    C   26  px     Val( 2p)     0.95306       0.07829
   129    C   26  py     Val( 2p)     0.98448       0.06922
   130    C   26  pz     Val( 2p)     1.01349       0.06043
 
   131    C   27  S      Cor( 1S)     1.99995     -10.98478
   132    C   27  S      Val( 2S)     1.08322      -0.19013
   133    C   27  px     Val( 2p)     0.97900       0.09443
   134    C   27  py     Val( 2p)     1.02307       0.08423
   135    C   27  pz     Val( 2p)     1.00190       0.08871
 
   136    C   28  S      Cor( 1S)     1.99990     -10.96208
   137    C   28  S      Val( 2S)     1.08086      -0.18833
   138    C   28  px     Val( 2p)     0.94496       0.13782
   139    C   28  py     Val( 2p)     0.95860       0.17381
   140    C   28  pz     Val( 2p)     0.98679       0.05034
 
   141    C   29  S      Cor( 1S)     1.99992     -10.94591
   142    C   29  S      Val( 2S)     1.07600      -0.17750
   143    C   29  px     Val( 2p)     0.99599       0.11544
   144    C   29  py     Val( 2p)     0.98077       0.15225
   145    C   29  pz     Val( 2p)     1.01526       0.04075
 
   146    C   30  S      Cor( 1S)     1.99994     -10.94749
   147    C   30  S      Val( 2S)     1.08391      -0.18307
   148    C   30  px     Val( 2p)     0.97663       0.12914
   149    C   30  py     Val( 2p)     0.97498       0.15715
   150    C   30  pz     Val( 2p)     1.00612       0.04371
 
   151    C   31  S      Cor( 1S)     1.99993     -10.94474
   152    C   31  S      Val( 2S)     1.07697      -0.17551
   153    C   31  px     Val( 2p)     0.99058       0.11868
   154    C   31  py     Val( 2p)     0.98342       0.15637
   155    C   31  pz     Val( 2p)     1.01503       0.04427
 
   156    C   32  S      Cor( 1S)     1.99985     -10.97900
   157    C   32  S      Val( 2S)     1.06654      -0.18583
   158    C   32  px     Val( 2p)     0.91727       0.12099
   159    C   32  py     Val( 2p)     0.96802       0.16587
   160    C   32  pz     Val( 2p)     0.94843       0.06714
 
   161    C   33  S      Cor( 1S)     1.99990     -10.95088
   162    C   33  S      Val( 2S)     1.08702      -0.19334
   163    C   33  px     Val( 2p)     0.98180       0.13681
   164    C   33  py     Val( 2p)     0.95597       0.14301
   165    C   33  pz     Val( 2p)     0.99169       0.05300
 
   166    N   34  S      Cor( 1S)     1.99998     -15.25715
   167    N   34  S      Val( 2S)     1.44655      -0.60068
   168    N   34  px     Val( 2p)     1.05187       0.04286
   169    N   34  py     Val( 2p)     1.17128      -0.01749
   170    N   34  pz     Val( 2p)     1.60282      -0.18287
 
   171    C   35  S      Cor( 1S)     1.99996     -11.00883
   172    C   35  S      Val( 2S)     1.10461      -0.23421
   173    C   35  px     Val( 2p)     0.99236       0.05659
   174    C   35  py     Val( 2p)     0.95106       0.11442
   175    C   35  pz     Val( 2p)     0.95316       0.10334
 
   176    C   36  S      Cor( 1S)     1.99996     -11.04329
   177    C   36  S      Val( 2S)     1.12296      -0.25939
   178    C   36  px     Val( 2p)     0.93628       0.07837
   179    C   36  py     Val( 2p)     0.84131       0.14277
   180    C   36  pz     Val( 2p)     0.93060       0.09700
 
   181    C   37  S      Cor( 1S)     1.99991     -11.03211
   182    C   37  S      Val( 2S)     1.11001      -0.24905
   183    C   37  px     Val( 2p)     0.98436       0.07022
   184    C   37  py     Val( 2p)     0.90151       0.08117
   185    C   37  pz     Val( 2p)     0.93183       0.07415
 
   186    C   38  S      Cor( 1S)     1.99991     -10.97204
   187    C   38  S      Val( 2S)     1.11189      -0.20994
   188    C   38  px     Val( 2p)     0.98194       0.10152
   189    C   38  py     Val( 2p)     0.98744       0.10352
   190    C   38  pz     Val( 2p)     0.98456       0.08983
 
   191    C   39  S      Cor( 1S)     1.99996     -10.97298
   192    C   39  S      Val( 2S)     1.08984      -0.19428
   193    C   39  px     Val( 2p)     0.99790       0.09481
   194    C   39  py     Val( 2p)     0.98532       0.08900
   195    C   39  pz     Val( 2p)     1.00621       0.09112
 
   196    C   40  S      Cor( 1S)     1.99998     -11.00912
   197    C   40  S      Val( 2S)     1.09758      -0.22271
   198    C   40  px     Val( 2p)     0.96145       0.10236
   199    C   40  py     Val( 2p)     0.94821       0.10634
   200    C   40  pz     Val( 2p)     0.93499       0.10872
 
   201    N   41  S      Cor( 1S)     1.99999     -15.41734
   202    N   41  S      Val( 2S)     1.39317      -0.65722
   203    N   41  px     Val( 2p)     1.25630      -0.12688
   204    N   41  py     Val( 2p)     1.15507      -0.09802
   205    N   41  pz     Val( 2p)     1.16205      -0.11190
 
   206    C   42  S      Cor( 1S)     1.99992     -11.03670
   207    C   42  S      Val( 2S)     1.09146      -0.23390
   208    C   42  px     Val( 2p)     0.91914       0.08285
   209    C   42  py     Val( 2p)     0.92488       0.06891
   210    C   42  pz     Val( 2p)     1.01592       0.04787
 
   211    C   43  S      Cor( 1S)     1.99995     -10.99039
   212    C   43  S      Val( 2S)     1.08672      -0.20407
   213    C   43  px     Val( 2p)     1.03841       0.07616
   214    C   43  py     Val( 2p)     0.99502       0.08025
   215    C   43  pz     Val( 2p)     0.94425       0.09804
 
   216    C   44  S      Cor( 1S)     1.99994     -10.98518
   217    C   44  S      Val( 2S)     1.09144      -0.20341
   218    C   44  px     Val( 2p)     1.00178       0.08634
   219    C   44  py     Val( 2p)     0.97728       0.09180
   220    C   44  pz     Val( 2p)     0.99228       0.08654
 
   221    C   45  S      Cor( 1S)     1.99993     -10.98557
   222    C   45  S      Val( 2S)     1.09839      -0.20923
   223    C   45  px     Val( 2p)     1.03056       0.07704
   224    C   45  py     Val( 2p)     0.98440       0.08275
   225    C   45  pz     Val( 2p)     0.96061       0.08995
 
   226    C   46  S      Cor( 1S)     1.99993     -11.03216
   227    C   46  S      Val( 2S)     1.09414      -0.23333
   228    C   46  px     Val( 2p)     1.01260       0.06082
   229    C   46  py     Val( 2p)     0.95118       0.05828
   230    C   46  pz     Val( 2p)     0.89602       0.08215
 
   231    C   47  S      Cor( 1S)     1.99991     -10.97300
   232    C   47  S      Val( 2S)     1.10405      -0.20129
   233    C   47  px     Val( 2p)     0.95043       0.10617
   234    C   47  py     Val( 2p)     0.99120       0.10282
   235    C   47  pz     Val( 2p)     1.01261       0.09729
 
   236    C   48  S      Cor( 1S)     1.99993     -11.00391
[...]
  105       0.9229        1.6656      -0.7427        -0.2434       1.1663
  106      25.8283       -0.3213      26.1497         0.5675      25.2609
  107       2.0163        2.9586      -0.9422         0.1858       1.8305
  108       0.1118        0.7453      -0.6335        -0.8921       1.0039
  116      -0.2213       -1.5024       1.2811        -0.5225       0.3012
 Sum       29.0094        5.9374      23.0720        -3.2235      32.2328

 Contributions to Isotropic shielding for atom   95 (    32.3401 ppm):
                         Standard Origin              Atomic Origin
 NLMO      Total    Paramagnetic  Diamagnetic   Paramagnetic  Diamagnetic
  102       1.3378        0.5301       0.8076         0.3773       0.9605
  105       1.5031        0.0789       1.4243         0.3969       1.1063
  106       1.8421        3.3925      -1.5504         0.0033       1.8388
  107      26.2304        0.0919      26.1386         0.4137      25.8167
  109       0.0530        0.2270      -0.1740        -1.0676       1.1206
 Sum       30.9665        4.3205      26.6460         0.1236      30.8429

 Contributions to Isotropic shielding for atom   96 (    32.2134 ppm):
                         Standard Origin              Atomic Origin
 NLMO      Total    Paramagnetic  Diamagnetic   Paramagnetic  Diamagnetic
   97       0.9145        1.3836      -0.4691        -0.0480       0.9625
   98      -0.1740        0.7006      -0.8746        -1.1496       0.9756
  105       0.6218        2.5171      -1.8953        -0.4441       1.0658
  106       0.1512       -0.3789       0.5301        -0.9566       1.1078
  108      26.3110       -0.0947      26.4057         0.5638      25.7472
  109       2.3298        0.3672       1.9626         0.5994       1.7305
  117       0.0539       -1.0084       1.0623        -0.8020       0.8559
 Sum       30.2083        3.4866      26.7217        -2.2371      32.4454

 Contributions to Isotropic shielding for atom   97 (    32.8322 ppm):
                         Standard Origin              Atomic Origin
 NLMO      Total    Paramagnetic  Diamagnetic   Paramagnetic  Diamagnetic
   97       1.9051       -1.1723       3.0774         0.9560       0.9491
  102       0.2551       -1.1244       1.3795        -0.2854       0.5405
  105       1.3172       -0.5108       1.8280         0.2019       1.1152
  107      -0.0096       -1.3197       1.3101        -1.0285       1.0189
  108       1.8135        1.1107       0.7028        -0.0261       1.8397
  109      26.3083        0.5416      25.7667         0.2729      26.0354
 Sum       31.5896       -2.4750      34.0646         0.0908      31.4988

 Contributions to Isotropic shielding for atom   98 (    32.7854 ppm):
                         Standard Origin              Atomic Origin
 NLMO      Total    Paramagnetic  Diamagnetic   Paramagnetic  Diamagnetic
   71      -0.9510        0.0458      -0.9969        -2.0109       1.0599
   80       0.0052        0.8410      -0.8358        -1.0687       1.0739
   85       1.5896       -0.9467       2.5363         0.9423       0.6472
   89      -0.0852        0.0919      -0.1770        -1.0235       0.9384
  111      26.1931        0.1350      26.0581         0.6121      25.5810
  112       1.7742        3.1860      -1.4118        -0.1504       1.9246
  121       0.1108       -1.2891       1.3999        -0.6669       0.7777
  127      -0.0859       -1.4027       1.3168        -0.1973       0.1114
  191      -0.3539        0.7433      -1.0973         0.3134      -0.6673
 Sum       28.1967        1.4045      26.7923        -3.2500      31.4467

 Contributions to Isotropic shielding for atom   99 (    31.1987 ppm):
                         Standard Origin              Atomic Origin
 NLMO      Total    Paramagnetic  Diamagnetic   Paramagnetic  Diamagnetic
   83      -0.4553        1.0888      -1.5441        -0.8658       0.4104
   87      -0.1861       -0.0976      -0.0885        -1.0292       0.8431
   89      -0.2280       -0.0549      -0.1731        -1.1081       0.8801
  100      -0.2723       -0.0190      -0.2533        -1.1056       0.8333
  110       0.7858        1.5611      -0.7753         0.0327       0.7531
  111       1.6104        2.7675      -1.1571        -0.3078       1.9182
  112      25.5325       -0.1909      25.7234         0.6825      24.8500
  113       0.0628        0.4967      -0.4339        -0.9472       1.0100
  118       0.5888       -0.9135       1.5024        -0.2852       0.8740
  120       1.2978       -0.8483       2.1461         0.6255       0.6723
  121      -0.0163       -3.5503       3.5340        -1.1085       1.0922
  123       0.2861       -0.7455       1.0316        -0.4265       0.7126
  126       0.0184       -1.1960       1.2144        -0.4576       0.4760
  127      -0.1115       -1.2660       1.1545        -0.3169       0.2053
  191      -0.8368        1.8166      -2.6534         0.2416      -1.0784
  195       0.0528       -0.0443       0.0971         1.0490      -0.9962
 Sum       28.1291       -1.1956      29.3247        -5.3270      33.4561

 Contributions to Isotropic shielding for atom  100 (    30.9555 ppm):
                         Standard Origin              Atomic Origin
 NLMO      Total    Paramagnetic  Diamagnetic   Paramagnetic  Diamagnetic
  100      -0.1907        1.0405      -1.2312        -0.9711       0.7804
  101      -0.0366        0.3797      -0.4163        -1.0554       1.0188
  110       0.3018        1.8775      -1.5757        -0.6719       0.9736
  112       0.1002       -0.1010       0.2012        -0.9397       1.0399
  113      25.9343        0.4053      25.5291         1.0501      24.8843
  114       1.8059       -0.2013       2.0073         0.1176       1.6883
  195       0.2738       -0.6523       0.9261         1.0867      -0.8129
 Sum       28.1888        2.7483      25.4404        -1.3837      29.5724

 Contributions to Isotropic shielding for atom  101 (    31.4933 ppm):
                         Standard Origin              Atomic Origin
 NLMO      Total    Paramagnetic  Diamagnetic   Paramagnetic  Diamagnetic
   71      -0.0121       -0.2924       0.2803        -1.1465       1.1344
   85       0.3652       -0.8785       1.2437        -0.3994       0.7647
  100       1.7979       -1.5478       3.3457         1.3373       0.4606
  110       1.1004       -0.9732       2.0737         0.2676       0.8328
  113       1.2778        0.9897       0.2881        -0.5620       1.8397
  114      26.2683        0.9120      25.3562         0.5984      25.6699
 Sum       30.7975       -1.7901      32.5877         0.0954      30.7021

 Contributions to Isotropic shielding for atom  102 (    30.2407 ppm):
                         Standard Origin              Atomic Origin
 NLMO      Total    Paramagnetic  Diamagnetic   Paramagnetic  Diamagnetic
   87       0.3748       -0.8569       1.2317         0.2530       0.1218
   89      -0.4143        0.1334      -0.5477        -1.3116       0.8973
   97      -0.2558        1.2722      -1.5279        -1.0841       0.8284
   98       1.6716       -0.9308       2.6024         0.7342       0.9374
  105      -0.1212        0.5309      -0.6521        -1.0051       0.8839
  115       0.2388        2.3190      -2.0803        -0.6380       0.8768
  116      25.4431       -0.0664      25.5095         0.6769      24.7662
  117       1.5214        2.8360      -1.3146        -0.4013       1.9228
  118      -0.1966       -0.3046       0.1081        -1.2604       1.0638
  122       1.4857       -2.2125       3.6981         0.2137       1.2720
  125       0.1372       -1.0617       1.1989        -0.5172       0.6544
  126       0.1816       -1.3286       1.5102        -0.5165       0.6981
  193      -1.1967        1.3351      -2.5318         0.1210      -1.3177
  194      -0.5268       -1.4150       0.8881        -0.8772       0.3504
 Sum       28.3427        0.2502      28.0925        -5.6126      33.9553

 Contributions to Isotropic shielding for atom  103 (    31.6997 ppm):
                         Standard Origin              Atomic Origin
 NLMO      Total    Paramagnetic  Diamagnetic   Paramagnetic  Diamagnetic
   86      -0.0735        0.2646      -0.3381        -1.0226       0.9491
   87       0.3902       -0.9037       1.2939         0.0583       0.3319
   94      -0.3087        1.3033      -1.6119        -1.2718       0.9631
   97      -0.1066        1.0550      -1.1616        -0.7036       0.5970
   98       1.8791       -0.9414       2.8205         0.9241       0.9550
  115       0.5271        2.4831      -1.9560        -0.5878       1.1149
  116       1.7214        2.7214      -1.0000        -0.2951       2.0165
  117      26.6224       -0.2416      26.8641         0.5907      26.0318
  119      -0.1204       -0.9969       0.8765        -1.2335       1.1131
  122       0.8496       -1.2992       2.1488        -0.2748       1.1244
  193      -0.7391        0.4952      -1.2343         0.1610      -0.9001
 Sum       30.6416        3.9397      26.7019        -3.6551      34.2967

 Contributions to Isotropic shielding for atom  104 (    31.1559 ppm):
                         Standard Origin              Atomic Origin
 NLMO      Total    Paramagnetic  Diamagnetic   Paramagnetic  Diamagnetic
   81      -0.4839        1.3369      -1.8208        -1.4039       0.9201
   86      -0.1739        1.5125      -1.6864        -1.4022       1.2283
   87       1.5568        0.3460       1.2108         0.5043       1.0525
  115       1.6530        1.5167       0.1362         0.4417       1.2112
  117      -0.2067        0.4750      -0.6817        -1.3507       1.1440
  118       0.1117        5.1210      -5.0093        -0.9489       1.0606
  119      25.9294       -0.6284      26.5578         0.4345      25.4949
  122       0.6578       -1.5103       2.1681        -0.8026       1.4604
  124       0.1499       -0.8537       1.0036        -0.5057       0.6556
  126       0.1469       -0.8702       1.0171        -0.3002       0.4471
  128      -0.0949       -1.7657       1.6708        -0.6740       0.5791
 Sum       29.2462        4.6800      24.5662        -6.0076      35.2538

 Contributions to Isotropic shielding for atom  105 (    30.6577 ppm):
                         Standard Origin              Atomic Origin
 NLMO      Total    Paramagnetic  Diamagnetic   Paramagnetic  Diamagnetic
  120      -1.3096        0.8945      -2.2041        -2.2056       0.8960
  121      -0.5739        2.2823      -2.8562        -2.1166       1.5427
  122      -1.9876        1.3738      -3.3614        -2.7714       0.7838
  123       1.3500        0.0723       1.2778        -0.1492       1.4993
  124      26.6013        0.6418      25.9595         1.2471      25.3542
  125       1.1558        4.5898      -3.4340        -0.8757       2.0315
  126       1.4225        1.1165       0.3059        -0.4516       1.8741
  191       0.6146       -1.7251       2.3398         1.3980      -0.7834
  192       0.8493        1.0489      -0.1996         1.0990      -0.2497
  193       1.5686       -1.1935       2.7622         1.6167      -0.0481
 Sum       29.6910        9.1011      20.5899        -3.2094      32.9004

 Contributions to Isotropic shielding for atom  106 (    30.6775 ppm):
                         Standard Origin              Atomic Origin
 NLMO      Total    Paramagnetic  Diamagnetic   Paramagnetic  Diamagnetic
  120      -0.6619        0.3545      -1.0164        -1.2975       0.6356
  121      -0.1212        1.1133      -1.2345        -1.1578       1.0366
  123       1.0691        0.8645       0.2046        -1.0165       2.0856
  124       0.5636        4.0082      -3.4446        -1.4120       1.9756
  125      26.1219        0.3556      25.7663         0.8301      25.2918
  126       1.3054        1.2832       0.0222        -0.6972       2.0026
  191       0.2574       -0.7769       1.0343         0.6438      -0.3864
  193       1.0173       -0.9901       2.0074         1.4841      -0.4668
  194       1.0084        0.4204       0.5880         0.7456       0.2627
 Sum       30.5600        6.6326      23.9274        -1.8774      32.4374

 Contributions to Isotropic shielding for atom  107 (    30.5983 ppm):
                         Standard Origin              Atomic Origin
 NLMO      Total    Paramagnetic  Diamagnetic   Paramagnetic  Diamagnetic
  120      -0.9931        0.7590      -1.7521        -1.8824       0.8893
  121      -0.3839        1.4782      -1.8621        -1.9328       1.5489
  122      -1.4391        1.4738      -2.9129        -2.3302       0.8911
  123       2.8661       -5.1252       7.9913         1.4601       1.4060
  124       1.1163        1.6993      -0.5830        -0.7490       1.8654
  125       1.4636        1.8498      -0.3862        -0.5728       2.0364
  126      26.0599        1.0202      25.0397         0.9947      25.0652
  191       0.3484       -1.1249       1.4733         1.1099      -0.7615
 Sum       29.0383        2.0302      27.0081        -3.9025      32.9408

 Contributions to Isotropic shielding for atom  108 (    31.6101 ppm):
                         Standard Origin              Atomic Origin
 NLMO      Total    Paramagnetic  Diamagnetic   Paramagnetic  Diamagnetic
   76      -0.9934        0.3819      -1.3753        -1.7802       0.7868
   79      -0.2393        1.3338      -1.5731        -0.8749       0.6356
   82       2.0507       -3.0564       5.1071         1.2488       0.8019
   85      -0.1575        0.8291      -0.9866        -1.0959       0.9384
   87      -0.2962        0.8203      -1.1165        -0.8489       0.5528
  121       0.1777       -1.6621       1.8398        -0.7190       0.8967
  127      26.3596        0.8206      25.5390         0.8962      25.4634
  128       1.7705        2.5060      -0.7355        -0.0509       1.8214
  129       1.6970        2.3513      -0.6543        -0.2038       1.9008
  191      -0.5634        1.1375      -1.7009         0.4195      -0.9829
 Sum       29.8058        5.4620      24.3438        -3.0090      32.8148

 Contributions to Isotropic shielding for atom  109 (    31.7811 ppm):
                         Standard Origin              Atomic Origin
 NLMO      Total    Paramagnetic  Diamagnetic   Paramagnetic  Diamagnetic
   76      -0.5947        0.1456      -0.7403        -1.4107       0.8160
   81      -0.3972        1.1791      -1.5763        -0.9912       0.5941
   82       1.1412       -0.1604       1.3016        -0.1775       1.3187
   87      -0.3106        1.3181      -1.6287        -1.2336       0.9230
  118      -0.1013        0.2289      -0.3303        -1.0923       0.9910
  121      -0.2470       -0.8065       0.5595        -1.3279       1.0809
  124       0.0582       -0.9914       1.0496        -0.4677       0.5259
  127       1.5440        1.4433       0.1007        -0.2345       1.7784
  128      26.1789        0.1938      25.9850         0.7070      25.4719
  129       1.4550        3.9988      -2.5438        -0.5467       2.0017
  190       0.9447       -0.2515       1.1962         0.9980      -0.0533
 Sum       29.6712        6.2979      23.3732        -5.7771      35.4482

 Contributions to Isotropic shielding for atom  110 (    31.2147 ppm):
                         Standard Origin              Atomic Origin
 NLMO      Total    Paramagnetic  Diamagnetic   Paramagnetic  Diamagnetic
   75      -0.4711        1.0534      -1.5245        -1.1538       0.6827
   76      -1.0571        0.5210      -1.5781        -2.3267       1.2696
   79      -0.5298        1.7032      -2.2331        -1.4006       0.8708
   82       1.5052       -0.6049       2.1101         0.2824       1.2228
  127       1.5083        1.4258       0.0825        -0.3318       1.8401
  128       1.4368        3.8274      -2.3906        -0.5504       1.9873
  129      26.2245        0.1178      26.1068         0.6735      25.5511
  190       0.9899       -0.1211       1.1109         0.9969      -0.0071
 Sum       29.6067        7.9226      21.6841        -3.8106      33.4173
 
 1\1\GINC-PCSN02\SP\RHF\STO-3G\C45H56N4O5\ABENIDD\30-May-2024\0\\# nmr=
 giao hf/sto-3g pop=nbo geom=connectivity\\Pleiokomenine_C_2\\0,1\C,0,0
 .,0.,0.\C,0,1.4015,0.,0.\C,0,2.0916,1.2301,0.\C,0,1.403,2.4515,-0.0087
 \C,0,0.0193,2.4421,0.0013\C,0,-0.6643,1.2153,0.0355\N,0,-0.8681,3.5509
 ,-0.0062\C,0,-2.1356,1.4873,0.2185\C,0,-2.1561,2.9331,-0.4136\C,0,-3.1
 841,0.6086,-0.4761\C,0,-2.198,2.7967,-1.9969\C,0,-3.4685,2.0694,-2.458
 5\C,0,-4.2135,1.5233,-1.2236\N,0,-3.7258,-0.241,0.5914\C,0,-4.9748,-0.
 9146,0.2613\C,0,-6.0261,-0.0432,-0.4256\C,0,-5.4407,0.6951,-1.6295\C,0
 ,-2.4201,1.3061,1.7313\C,0,-3.7286,0.5333,1.8235\C,0,-4.6474,2.7897,-0
 .4088\C,0,-3.4406,3.7053,-0.0653\C,0,-3.5357,4.2819,1.3362\O,0,-4.2553
 ,3.8482,2.2276\O,0,-2.764,5.3988,1.4504\C,0,-2.7685,5.9835,2.7525\C,0,
 -0.3828,4.7715,-0.6314\C,0,2.1608,-1.3067,0.1069\C,0,2.3611,-1.7511,1.
 542\C,0,1.2538,-2.1289,2.3177\C,0,3.6498,-1.7631,2.1202\C,0,3.8419,-2.
 1149,3.463\C,0,2.7337,-2.437,4.2256\C,0,1.4505,-2.4503,3.6487\N,0,2.72
 03,-2.6616,5.6493\C,0,0.4705,-2.9493,4.68\C,0,1.2663,-2.4676,5.9363\C,
 0,-0.938,-2.3819,4.7903\C,0,1.1741,-0.8329,6.0272\C,0,-0.2593,-0.3164,
 5.9199\C,0,-1.2107,-1.5119,6.0268\N,0,-1.8691,-3.5818,4.7616\C,0,-3.24
 6,-3.088,4.4558\C,0,-3.6998,-2.1636,5.6019\C,0,-2.688,-1.0537,5.9652\C
 ,0,0.2382,-4.4349,4.2843\C,0,-1.2085,-4.4567,3.7609\C,0,-0.8095,-2.219
 4,7.3637\C,0,0.6288,-2.8698,7.2928\C,0,0.586,-4.3382,7.7015\O,0,1.2276
 ,-5.2516,7.2024\O,0,-0.1669,-4.484,8.8358\C,0,-0.3112,-5.8362,9.267\C,
 0,3.4059,-3.8993,5.9907\O,0,-1.9262,-4.3067,5.9266\H,0,-0.563,-0.9275,
 0.033\H,0,3.1793,1.2415,0.0284\H,0,1.961,3.3807,0.0006\H,0,-2.7107,-0.
 0596,-1.2084\H,0,-2.1635,3.7863,-2.4704\H,0,-1.3214,2.261,-2.3822\H,0,
 -4.1087,2.7577,-3.0248\H,0,-3.1993,1.2616,-3.1503\H,0,-4.7318,-1.7471,
 -0.4118\H,0,-5.405,-1.381,1.1561\H,0,-6.8556,-0.6767,-0.7614\H,0,-6.45
 18,0.6674,0.291\H,0,-5.1577,-0.0417,-2.3925\H,0,-6.2092,1.3334,-2.0814
 \H,0,-1.647,0.6863,2.2096\H,0,-2.4297,2.2331,2.3034\H,0,-3.7319,-0.119
 3,2.7028\H,0,-4.5864,1.2011,1.9125\H,0,-5.2204,2.5157,0.4771\H,0,-5.35
 26,3.3777,-1.0139\H,0,-3.5226,4.5845,-0.7228\H,0,-2.0797,6.8327,2.7447
 \H,0,-2.4204,5.2631,3.4996\H,0,-3.7688,6.3502,3.0024\H,0,0.017,4.588,-
 1.6351\H,0,0.4018,5.2293,-0.0195\H,0,-1.1876,5.5076,-0.7211\H,0,1.6262
 ,-2.0941,-0.4408\H,0,3.1282,-1.2078,-0.4021\H,0,0.2603,-2.1616,1.8859\
 H,0,4.5149,-1.4697,1.5293\H,0,4.8294,-2.0748,3.9091\H,0,-1.1731,-1.815
 9,3.8761\H,0,1.7775,-0.3225,5.2659\H,0,1.616,-0.5053,6.9792\H,0,-0.452
 ,0.4237,6.7061\H,0,-0.3944,0.2061,4.9639\H,0,-3.8895,-3.9699,4.3706\H,
 0,-3.2084,-2.5678,3.4932\H,0,-3.8844,-2.7665,6.4997\H,0,-4.6605,-1.706
 7,5.3381\H,0,-2.9816,-0.5884,6.9138\H,0,-2.7825,-0.2708,5.2003\H,0,0.9
 191,-4.829,3.5209\H,0,0.3136,-5.1062,5.1364\H,0,-1.6735,-5.4463,3.7867
 \H,0,-1.3207,-3.9918,2.7763\H,0,-1.5807,-2.9235,7.6849\H,0,-0.7962,-1.
 4682,8.1673\H,0,1.2385,-2.4173,8.0902\H,0,0.6521,-6.2332,9.602\H,0,-1.
 0041,-5.8498,10.1128\H,0,-0.7308,-6.4559,8.4681\H,0,2.9647,-4.7717,5.4
 981\H,0,3.3986,-4.0435,7.0749\H,0,4.4624,-3.8483,5.7022\\Version=ES64L
 -G16RevB.01\State=1-A\HF=-2300.1945986\RMSD=9.478e-09\Dipole=-0.686252
 8,1.3791328,-1.5808517\Quadrupole=-0.3264832,-0.1829212,0.5094044,-0.2
 344052,3.3716745,3.8186545\PG=C01 [X(C45H56N4O5)]\\@


 PENOTUS DIED A HUNDRED YEARS OLD WANTING BUT TWO...
 AND HE USED TO SAY BEFORE HE DIED, HAVING SPENT HIS
 WHOLE LIFE IN VAINLY SEARCHING AFTER THE PHILOSOPHER'S
 STONE, THAT IF HE HAD A MORTAL ENEMY HE DID NOT DARE
 TO ENCOUNTER OPENLY, HE WOULD ADVISE HIM ABOVE ALL
 THINGS TO GIVE HIMSELF UP TO THE STUDY AND PRACTICE
 OF ALCHEMY.  --  NICOLAS LEMERY, M.D.
 "A COURSE OF CHYMISTRY", WALTER KETTILBY, LONDON, 1686
 Job cpu time:       0 days  0 hours 11 minutes 37.5 seconds.
 Elapsed time:       0 days  0 hours  1 minutes 57.4 seconds.
 File lengths (MBytes):  RWF=     67 Int=      0 D2E=      0 Chk=     10 Scr=      1
 Normal termination of Gaussian 16 at Thu May 30 09:39:32 2024.
