 Entering Gaussian System, Link 0=g16
 Input=2_pleiokomenine_2a_c_13.gjf
 Output=2_pleiokomenine_2a_c_13.log
 Initial command:
 /opt/gaussian/g16/l1.exe "/data/abenidd/Elvis/pleiokomenine_C/NMR_HF/2a/2_pleiokomenine_2a_c_13/Gau-27057.inp" -scrdir="/data/abenidd/Elvis/pleiokomenine_C/NMR_HF/2a/2_pleiokomenine_2a_c_13/"
 Entering Link 1 = /opt/gaussian/g16/l1.exe PID=     27059.
  
 Copyright (c) 1988-2017, Gaussian, Inc.  All Rights Reserved.
  
 This is part of the Gaussian(R) 16 program.  It is based on
 the Gaussian(R) 09 system (copyright 2009, Gaussian, Inc.),
 the Gaussian(R) 03 system (copyright 2003, Gaussian, Inc.),
 the Gaussian(R) 98 system (copyright 1998, Gaussian, Inc.),
 the Gaussian(R) 94 system (copyright 1995, Gaussian, Inc.),
 the Gaussian 92(TM) system (copyright 1992, Gaussian, Inc.),
 the Gaussian 90(TM) system (copyright 1990, Gaussian, Inc.),
 the Gaussian 88(TM) system (copyright 1988, Gaussian, Inc.),
 the Gaussian 86(TM) system (copyright 1986, Carnegie Mellon
 University), and the Gaussian 82(TM) system (copyright 1983,
 Carnegie Mellon University). Gaussian is a federally registered
 trademark of Gaussian, Inc.
  
 This software contains proprietary and confidential information,
 including trade secrets, belonging to Gaussian, Inc.
  
 This software is provided under written license and may be
 used, copied, transmitted, or stored only in accord with that
 written license.
  
 The following legend is applicable only to US Government
 contracts under FAR:
  
                    RESTRICTED RIGHTS LEGEND
  
 Use, reproduction and disclosure by the US Government is
 subject to restrictions as set forth in subparagraphs (a)
 and (c) of the Commercial Computer Software - Restricted
 Rights clause in FAR 52.227-19.
  
 Gaussian, Inc.
 340 Quinnipiac St., Bldg. 40, Wallingford CT 06492
  
  
 ---------------------------------------------------------------
 Warning -- This program may not be used in any manner that
 competes with the business of Gaussian, Inc. or will provide
 assistance to any competitor of Gaussian, Inc.  The licensee
 of this program is prohibited from giving any competitor of
 Gaussian, Inc. access to this program.  By using this program,
 the user acknowledges that Gaussian, Inc. is engaged in the
 business of creating and licensing software in the field of
 computational chemistry and represents and warrants to the
 licensee that it is not a competitor of Gaussian, Inc. and that
 it will not use this program in any manner prohibited above.
 ---------------------------------------------------------------
  

 Cite this work as:
 Gaussian 16, Revision B.01,
 M. J. Frisch, G. W. Trucks, H. B. Schlegel, G. E. Scuseria, 
 M. A. Robb, J. R. Cheeseman, G. Scalmani, V. Barone, 
 G. A. Petersson, H. Nakatsuji, X. Li, M. Caricato, A. V. Marenich, 
 J. Bloino, B. G. Janesko, R. Gomperts, B. Mennucci, H. P. Hratchian, 
 J. V. Ortiz, A. F. Izmaylov, J. L. Sonnenberg, D. Williams-Young, 
 F. Ding, F. Lipparini, F. Egidi, J. Goings, B. Peng, A. Petrone, 
 T. Henderson, D. Ranasinghe, V. G. Zakrzewski, J. Gao, N. Rega, 
 G. Zheng, W. Liang, M. Hada, M. Ehara, K. Toyota, R. Fukuda, 
 J. Hasegawa, M. Ishida, T. Nakajima, Y. Honda, O. Kitao, H. Nakai, 
 T. Vreven, K. Throssell, J. A. Montgomery, Jr., J. E. Peralta, 
 F. Ogliaro, M. J. Bearpark, J. J. Heyd, E. N. Brothers, K. N. Kudin, 
 V. N. Staroverov, T. A. Keith, R. Kobayashi, J. Normand, 
 K. Raghavachari, A. P. Rendell, J. C. Burant, S. S. Iyengar, 
 J. Tomasi, M. Cossi, J. M. Millam, M. Klene, C. Adamo, R. Cammi, 
 J. W. Ochterski, R. L. Martin, K. Morokuma, O. Farkas, 
 J. B. Foresman, and D. J. Fox, Gaussian, Inc., Wallingford CT, 2016.
 
 ******************************************
 Gaussian 16:  ES64L-G16RevB.01 20-Dec-2017
                30-May-2024 
 ******************************************
 %nprocshared=8
 Will use up to    8 processors via shared memory.
 ----------------------------------------------
 # nmr=giao hf/sto-3g pop=nbo geom=connectivity
 ----------------------------------------------
 1/38=1,57=2,172=1/1;
 2/12=2,17=6,18=5,40=1/2;
 3/6=3,11=9,25=1,30=1/1,2,3,8;
 4//1;
 5/5=2,38=5/2;
 8/6=1,10=90,11=11/1;
 10/13=100,45=16/2;
 6/7=2,8=2,9=2,10=2,28=1,40=1,64=1/1,7;
 99/9=1/99;
 -----------------
 Pleiokomenine_C_2
 -----------------
 Symbolic Z-matrix:
 Charge =  0 Multiplicity = 1
 C                     0.        0.        0. 
 C                     1.4012    0.        0. 
 C                     2.087     1.2318    0. 
 C                     1.3944    2.4518   -0.0205 
 C                     0.011     2.4392   -0.0741 
 C                    -0.6693    1.2115   -0.0532 
 N                    -0.8786    3.5425   -0.1782 
 C                    -2.154     1.4708   -0.0595 
 C                    -2.108     2.9049   -0.7192 
 C                    -3.0911    0.5691   -0.879 
 C                    -1.9554    2.7429   -2.2961 
 C                    -3.1539    2.001    -2.9 
 C                    -4.0347    1.4594   -1.7576 
 N                    -3.747    -0.289     0.1127 
 C                    -4.9385   -0.981    -0.3613 
 C                    -5.91     -0.1278   -1.1753 
 C                    -5.1915    0.6106   -2.3036 
 C                    -2.6311    1.3025    1.4019 
 C                    -3.9171    0.4886    1.3332 
 C                    -4.5789    2.7277   -1.0151 
 C                    -3.433     3.667    -0.545 
 C                    -3.7071    4.2674    0.8224 
 O                    -4.5415    3.8532    1.6178 
 O                    -2.9502    5.383     1.0195 
 C                    -3.1256    5.9911    2.2988 
 C                    -0.3428    4.7626   -0.7624 
 C                     2.1597   -1.31     -0.0355 
 C                     2.0761   -1.9958   -1.3844 
 C                     0.9549   -2.775    -1.7041 
 C                     3.073    -1.7792   -2.3604 
 C                     2.9718   -2.334    -3.6442 
 C                     1.8589   -3.0919   -3.9557 
 C                     0.8477   -3.2805   -2.9883 
 N                     1.5534   -3.7595   -5.1735 
 C                    -0.3162   -3.9648   -3.6694 
 C                     0.533    -4.7435   -4.7316 
 C                    -1.2055   -4.9728   -2.9644 
 C                     1.3174   -5.9496   -3.9983 
 C                     0.3713   -6.8389   -3.1856 
 C                    -1.0803   -6.4175   -3.4696 
 N                    -2.627    -4.4615   -3.1318 
 C                    -3.4859   -5.1631   -2.1341 
 C                    -3.4848   -6.6684   -2.4719 
 C                    -2.079    -7.285    -2.6639 
 C                    -1.2818   -2.7864   -3.9933 
 C                    -2.4448   -2.9953   -3.0053 
 C                    -1.2315   -6.5251   -5.0266 
 C                    -0.3207   -5.4897   -5.7832 
 C                    -1.1032   -4.7109   -6.8288 
 O                    -2.0065   -5.2017   -7.4993 
 O                    -0.5834   -3.4779   -7.0592 
 C                    -1.2653   -2.7305   -8.065 
 C                     2.6537   -4.1388   -6.0395 
 O                    -3.1822   -4.66     -4.3693 
 H                    -0.5661   -0.9245    0.0365 
 H                     3.1748    1.2488    0.0074 
 H                     1.95      3.3824   -0.0182 
 H                    -2.5154   -0.0912   -1.5418 
 H                    -1.036     2.207    -2.563 
 H                    -1.8682    3.7252   -2.7779 
 H                    -3.7277    2.6782   -3.5451 
 H                    -2.7967    1.1899   -3.5469 
 H                    -4.6062   -1.814    -0.9938 
 H                    -5.4679   -1.4488    0.4777 
 H                    -6.6846   -0.774    -1.6047 
 H                    -6.4278    0.5815   -0.5207 
 H                    -4.8073   -0.1272   -3.02 
 H                    -5.9072    1.2348   -2.8518 
 H                    -1.91      0.7168    1.9906 
 H                    -2.7475    2.2364    1.9499 
 H                    -4.0109   -0.1631    2.2085 
 H                    -4.7968    1.1342    1.3133 
 H                    -5.245     2.4519   -0.1974 
 H                    -5.2184    3.2978   -1.7044 
 H                    -3.4439    4.533    -1.2247 
 H                    -4.1482    6.3658    2.4061 
 H                    -2.8847    5.2834    3.0983 
 H                    -2.4371    6.8378    2.3683 
 H                     0.1584    4.5763   -1.719 
 H                     0.3721    5.2314   -0.0777 
 H                    -1.1401    5.4909   -0.9392 
 H                     3.2122   -1.1482    0.2308 
 H                     1.7671   -1.9769    0.7435 
 H                     0.162    -2.9244   -0.98 
 H                     3.9333   -1.1552   -2.1268 
 H                     3.7503   -2.1477   -4.3747 
 H                    -1.0112   -4.9332   -1.8822 
 H                     2.1207   -5.6012   -3.3376 
 H                     1.83     -6.563    -4.7522 
 H                     0.5367   -7.893    -3.44 
 H                     0.6033   -6.74     -2.1174 
 H                    -4.4892   -4.7318   -2.2149 
 H                    -3.0784   -4.9596   -1.1385 
 H                    -4.0163   -7.2151   -1.6845 
 H                    -4.057    -6.8308   -3.3939 
 H                    -1.667    -7.4528   -1.6594 
 H                    -2.1751   -8.2771   -3.1215 
 H                    -0.8602   -1.7818   -3.8712 
 H                    -1.6644   -2.8404   -5.0126 
 H                    -2.183    -2.7725   -1.9663 
 H                    -3.3694   -2.4901   -3.2987 
 H                    -2.2757   -6.4741   -5.3433 
 H                    -0.9188   -7.5338   -5.3347 
 H                     0.3693   -6.075    -6.4107 
 H                    -0.8089   -1.7381   -8.1163 
 H                    -2.3226   -2.6105   -7.8082 
 H                    -1.154    -3.2138   -9.0405 
 H                     2.2844   -4.7044   -6.9007 
 H                     3.1556   -3.2501   -6.4367 
 H                     3.3941   -4.755    -5.5182 
 
 Stoichiometry    C45H56N4O5
 Framework group  C1[X(C45H56N4O5)]
 Deg. of freedom   324
 Full point group                 C1      NOp   1
 Largest Abelian subgroup         C1      NOp   1
 Largest concise Abelian subgroup C1      NOp   1
                         Standard orientation:                         
 ---------------------------------------------------------------------
 Center     Atomic      Atomic             Coordinates (Angstroms)
 Number     Number       Type             X           Y           Z
 ---------------------------------------------------------------------
      1          6           0        1.818737    1.709957   -1.413429
      2          6           0        1.501378    3.069992   -1.527218
      3          6           0        2.373852    4.026794   -0.969569
      4          6           0        3.538375    3.641978   -0.288159
      5          6           0        3.814255    2.293829   -0.135811
      6          6           0        2.954458    1.344275   -0.709910
      7          7           0        4.884015    1.686454    0.575670
      8          6           0        3.503921   -0.035802   -0.454791
      9          6           0        4.358610    0.318114    0.825137
     10          6           0        2.552007   -1.195389   -0.120102
     11          6           0        3.396501    0.356955    2.093594
     12          6           0        2.745463   -1.008877    2.342926
     13          6           0        3.067094   -1.940387    1.158419
     14          7           0        2.482890   -1.990199   -1.350350
     15          6           0        1.937176   -3.331594   -1.188897
     16          6           0        2.460088   -4.109534    0.017641
     17          6           0        2.346510   -3.288405    1.301146
     18          6           0        4.205889   -0.472879   -1.761635
     19          6           0        3.783526   -1.916566   -2.003145
     20          6           0        4.621706   -2.135399    1.193044
     21          6           0        5.382132   -0.779988    1.161798
     22          6           0        6.632284   -0.842569    0.302381
     23          8           0        6.875344   -1.714551   -0.522856
     24          8           0        7.490740    0.164651    0.626219
     25          6           0        8.680693    0.195724   -0.161312
     26          6           0        5.487147    2.468599    1.644079
     27          6           0        0.218695    3.494978   -2.210441
     28          6           0       -1.012402    3.191016   -1.380472
     29          6           0       -1.569263    1.904191   -1.401371
     30          6           0       -1.547891    4.165889   -0.510889
     31          6           0       -2.632985    3.878738    0.329529
     32          6           0       -3.169833    2.605372    0.311482
     33          6           0       -2.612064    1.622850   -0.535573
     34          7           0       -4.269610    2.096233    1.055340
     35          6           0       -3.261669    0.300741   -0.193714
     36          6           0       -4.637488    0.893123    0.266707
     37          6           0       -3.547061   -0.768948   -1.232107
     38          6           0       -5.453031    1.402415   -1.030676
     39          6           0       -5.572398    0.310498   -2.098342
     40          6           0       -5.034719   -1.011639   -1.525428
     41          7           0       -2.882597   -2.035372   -0.717547
     42          6           0       -2.772139   -2.989957   -1.858566
     43          6           0       -4.198137   -3.359890   -2.316517
     44          6           0       -5.127500   -2.149773   -2.571923
     45          6           0       -2.222480   -0.372545    0.751111
     46          6           0       -1.636916   -1.506278   -0.111511
     47          6           0       -5.872629   -1.253919   -0.222395
     48          6           0       -5.595172   -0.159208    0.872447
     49          6           0       -5.293522   -0.781711    2.226557
     50          8           0       -5.835371   -1.804663    2.634448
     51          8           0       -4.498223    0.003880    2.997213
     52          6           0       -4.225559   -0.526608    4.293155
     53          6           0       -5.270457    3.035572    1.524839
     54          8           0       -3.544306   -2.676886    0.297173
     55          1           0        1.193901    0.943615   -1.859301
     56          1           0        2.145378    5.086988   -1.055831
     57          1           0        4.190175    4.401317    0.128103
     58          1           0        1.537618   -0.822508    0.076637
     59          1           0        2.607001    1.110664    1.982539
     60          1           0        3.954273    0.652082    2.991613
     61          1           0        3.116317   -1.434796    3.283703
     62          1           0        1.662727   -0.883004    2.468595
     63          1           0        0.849042   -3.234418   -1.084544
     64          1           0        2.088341   -3.918243   -2.103235
     65          1           0        1.880576   -5.033444    0.129535
     66          1           0        3.498127   -4.415004   -0.152322
     67          1           0        1.283896   -3.122128    1.521126
     68          1           0        2.753971   -3.860220    2.143391
     69          1           0        3.849680    0.115101   -2.620118
     70          1           0        5.286854   -0.340454   -1.760322
     71          1           0        3.700827   -2.122244   -3.075768
     72          1           0        4.511452   -2.618723   -1.593066
     73          1           0        4.953332   -2.810309    0.403799
     74          1           0        4.895867   -2.652392    2.123991
     75          1           0        5.765641   -0.616477    2.180744
     76          1           0        9.278865   -0.703440    0.015658
     77          1           0        8.437373    0.298265   -1.223552
     78          1           0        9.266155    1.067252    0.144360
     79          1           0        4.737502    2.867978    2.336553
     80          1           0        6.060445    3.304125    1.228272
     81          1           0        6.186574    1.858905    2.224114
     82          1           0        0.249131    4.566789   -2.445275
     83          1           0        0.142600    2.991351   -3.183221
     84          1           0       -1.150484    1.131868   -2.036567
     85          1           0       -1.104701    5.158920   -0.471741
     86          1           0       -3.020930    4.645517    0.989793
     87          1           0       -3.014233   -0.522280   -2.162551
     88          1           0       -5.012275    2.294206   -1.492890
     89          1           0       -6.459771    1.721035   -0.726803
     90          1           0       -6.617223    0.210439   -2.416982
     91          1           0       -5.005664    0.607145   -2.990233
     92          1           0       -2.225630   -3.865477   -1.492572
     93          1           0       -2.194358   -2.501512   -2.649942
     94          1           0       -4.138258   -3.969548   -3.225420
     95          1           0       -4.667338   -3.995170   -1.554848
     96          1           0       -4.856075   -1.744319   -3.556229
     97          1           0       -6.163472   -2.498142   -2.663011
     98          1           0       -1.418387    0.279614    1.111664
     99          1           0       -2.693069   -0.802553    1.635368
    100          1           0       -0.988224   -1.152736   -0.918918
    101          1           0       -1.153399   -2.297513    0.468449
    102          1           0       -5.752711   -2.269645    0.161239
    103          1           0       -6.939919   -1.202692   -0.484026
    104          1           0       -6.555131    0.343932    1.066770
    105          1           0       -3.526658    0.148639    4.794523
    106          1           0       -3.756924   -1.512924    4.217043
    107          1           0       -5.144206   -0.576724    4.885728
    108          1           0       -6.091489    2.504668    2.016773
    109          1           0       -4.842199    3.714901    2.269531
    110          1           0       -5.690355    3.632042    0.707796
 ---------------------------------------------------------------------
 Rotational constants (GHZ):           0.0970080           0.0336466           0.0301079
 Standard basis: STO-3G (5D, 7F)
 There are   326 symmetry adapted cartesian basis functions of A   symmetry.
 There are   326 symmetry adapted basis functions of A   symmetry.
   326 basis functions,   978 primitive gaussians,   326 cartesian basis functions
   197 alpha electrons      197 beta electrons
       nuclear repulsion energy      8180.7745819337 Hartrees.
 NAtoms=  110 NActive=  110 NUniq=  110 SFac= 1.00D+00 NAtFMM=   60 NAOKFM=T Big=T
 Integral buffers will be    131072 words long.
 Raffenetti 1 integral format.
 Two-electron integral symmetry is turned on.
 One-electron integrals computed using PRISM.
 NBasis=   326 RedAO= T EigKep=  1.72D-01  NBF=   326
 NBsUse=   326 1.00D-06 EigRej= -1.00D+00 NBFU=   326
 ExpMin= 1.69D-01 ExpMax= 1.31D+02 ExpMxC= 1.31D+02 IAcc=3 IRadAn=         5 AccDes= 0.00D+00
 Harris functional with IExCor=  205 and IRadAn=       5 diagonalized for initial guess.
 HarFok:  IExCor=  205 AccDes= 0.00D+00 IRadAn=         5 IDoV= 1 UseB2=F ITyADJ=14
 ICtDFT=  3500011 ScaDFX=  1.000000  1.000000  1.000000  1.000000
 FoFCou: FMM=F IPFlag=           0 FMFlag=      100000 FMFlg1=        2001
         NFxFlg=           0 DoJE=T BraDBF=F KetDBF=T FulRan=T
         wScrn=  0.000000 ICntrl=       500 IOpCl=  0 I1Cent=   200000004 NGrid=           0
         NMat0=    1 NMatS0=      1 NMatT0=    0 NMatD0=    1 NMtDS0=    0 NMtDT0=    0
 Petite list used in FoFCou.
 Requested convergence on RMS density matrix=1.00D-08 within 128 cycles.
 Requested convergence on MAX density matrix=1.00D-06.
 Requested convergence on             energy=1.00D-06.
 No special actions if energy rises.
 Integral accuracy reduced to 1.0D-05 until final iterations.
 Initial convergence to 1.0D-05 achieved.  Increase integral accuracy.
 SCF Done:  E(RHF) =  -2300.19829070     A.U. after   16 cycles
            NFock= 16  Conv=0.39D-08     -V/T= 2.0093
 Range of M.O.s used for correlation:     1   326
 NBasis=   326 NAE=   197 NBE=   197 NFC=     0 NFV=     0
 NROrb=    326 NOA=   197 NOB=   197 NVA=   129 NVB=   129
          Differentiating once with respect to magnetic field using GIAOs.
          Electric field/nuclear overlap derivatives assumed to be zero.
 FoFCou: FMM=F IPFlag=           0 FMFlag=      100000 FMFlg1=        2001
         NFxFlg=           0 DoJE=F BraDBF=F KetDBF=T FulRan=T
         wScrn=  0.000000 ICntrl=      6100 IOpCl=  0 I1Cent=           7 NGrid=         110
         NMat0=    1 NMatS0=      1 NMatT0=    0 NMatD0=    1 NMtDS0=    0 NMtDT0=    0
 Symmetry not used in FoFCou.
 FoFJK:  IHMeth= 1 ICntrl=    6127 DoSepK=F KAlg= 0 I1Cent=           0 FoldK=F
 IRaf=         1 NMat=       1 IRICut=       1 DoRegI=T DoRafI=F ISym2E= 0 IDoP0=0 IntGTp=1.
          There are     3 degrees of freedom in the 1st order CPHF.  IDoFFX=0 NUNeed=     3.
      3 vectors produced by pass  0 Test12= 8.47D-13 3.33D-08 XBig12= 1.76D+02 2.28D+00.
 AX will form     3 AO Fock derivatives at one time.
      3 vectors produced by pass  1 Test12= 8.47D-13 3.33D-08 XBig12= 8.21D-01 3.17D-01.
      3 vectors produced by pass  2 Test12= 8.47D-13 3.33D-08 XBig12= 1.85D-02 3.74D-02.
      3 vectors produced by pass  3 Test12= 8.47D-13 3.33D-08 XBig12= 5.46D-04 8.25D-03.
      3 vectors produced by pass  4 Test12= 8.47D-13 3.33D-08 XBig12= 1.75D-05 1.07D-03.
      3 vectors produced by pass  5 Test12= 8.47D-13 3.33D-08 XBig12= 3.21D-07 7.80D-05.
      3 vectors produced by pass  6 Test12= 8.47D-13 3.33D-08 XBig12= 1.28D-08 3.26D-05.
      3 vectors produced by pass  7 Test12= 8.47D-13 3.33D-08 XBig12= 3.70D-10 3.70D-06.
      3 vectors produced by pass  8 Test12= 8.47D-13 3.33D-08 XBig12= 6.69D-12 3.03D-07.
      2 vectors produced by pass  9 Test12= 8.47D-13 3.33D-08 XBig12= 1.23D-13 6.66D-08.
 InvSVY:  IOpt=1 It=  1 EMax= 1.78D-15
 Solved reduced A of dimension    29 with     3 vectors.
 Calculating GIAO nuclear magnetic shielding tensors.
 SCF GIAO Magnetic shielding tensor (ppm):
      1  C    Isotropic =   125.0479   Anisotropy =   150.0384
   XX=   119.8066   YX=   -27.0394   ZX=   -69.1759
   XY=   -32.6659   YY=    72.9106   ZY=   -30.0313
   XZ=   -63.1802   YZ=   -31.9878   ZZ=   182.4264
   Eigenvalues:    33.2320   116.8382   225.0735
      2  C    Isotropic =   120.8259   Anisotropy =   156.2694
   XX=    95.8770   YX=    20.1991   ZX=   -76.7326
   XY=    15.3960   YY=    91.6194   ZY=     0.2331
   XZ=   -82.5350   YZ=    -0.1594   ZZ=   174.9812
   Eigenvalues:    41.8588    95.6134   225.0055
      3  C    Isotropic =   119.6448   Anisotropy =   149.3128
   XX=   133.5402   YX=    20.6719   ZX=   -50.8423
   XY=    20.5255   YY=    34.0135   ZY=     3.3716
   XZ=   -45.9847   YZ=     2.1255   ZZ=   191.3809
   Eigenvalues:    28.8833   110.8645   219.1867
      4  C    Isotropic =   133.6159   Anisotropy =   142.5847
   XX=   127.5977   YX=   -26.7270   ZX=   -63.0375
   XY=   -23.1475   YY=    85.2922   ZY=   -18.4620
   XZ=   -64.5578   YZ=   -28.6627   ZZ=   187.9578
   Eigenvalues:    52.4333   119.7420   228.6723
      5  C    Isotropic =   108.8711   Anisotropy =   127.2432
   XX=    91.0598   YX=    18.0400   ZX=   -68.3235
   XY=     5.1229   YY=    89.4332   ZY=     0.8540
   XZ=   -70.7687   YZ=     1.1212   ZZ=   146.1204
   Eigenvalues:    41.6350    91.2784   193.6999
      6  C    Isotropic =   117.6044   Anisotropy =   139.7449
   XX=   120.5380   YX=    -0.0159   ZX=   -55.5664
   XY=     8.4531   YY=    50.6189   ZY=     2.8400
   XZ=   -46.9324   YZ=     3.1365   ZZ=   181.6564
   Eigenvalues:    49.9788    92.0668   210.7677
      7  N    Isotropic =   273.5581   Anisotropy =    81.7065
   XX=   271.3527   YX=   -13.6036   ZX=    28.4766
   XY=   -27.3691   YY=   274.5279   ZY=   -42.3564
   XZ=    18.6201   YZ=   -30.1285   ZZ=   274.7937
   Eigenvalues:   238.1940   254.4513   328.0291
      8  C    Isotropic =   196.0733   Anisotropy =    14.7359
   XX=   201.0971   YX=     2.6765   ZX=    -1.9000
   XY=     8.7041   YY=   196.2201   ZY=     4.8091
   XZ=     2.1727   YZ=     8.1259   ZZ=   190.9027
   Eigenvalues:   185.8847   196.4380   205.8973
      9  C    Isotropic =   181.2003   Anisotropy =    45.0035
   XX=   177.2071   YX=    21.6595   ZX=     6.4763
   XY=    11.3404   YY=   203.1649   ZY=    -0.4892
   XZ=    18.6036   YZ=    -9.4283   ZZ=   163.2288
   Eigenvalues:   152.4272   179.9710   211.2026
     10  C    Isotropic =   190.0308   Anisotropy =    27.6808
   XX=   177.5005   YX=     6.3696   ZX=    -0.0490
   XY=     3.5220   YY=   196.8382   ZY=    11.1445
   XZ=    -3.5828   YZ=    12.8501   ZZ=   195.7535
   Eigenvalues:   174.9442   186.6635   208.4846
     11  C    Isotropic =   213.8841   Anisotropy =    18.6960
   XX=   213.7557   YX=    -1.1290   ZX=   -11.5594
   XY=     5.2263   YY=   209.6570   ZY=     0.1781
   XZ=    -8.5284   YZ=     0.5661   ZZ=   218.2397
   Eigenvalues:   204.9820   210.3222   226.3481
     12  C    Isotropic =   212.9910   Anisotropy =    19.7328
   XX=   208.1859   YX=     0.3868   ZX=    -2.5134
   XY=    -1.0122   YY=   215.9684   ZY=    11.6346
   XZ=    -2.8771   YZ=     9.3536   ZZ=   214.8186
   Eigenvalues:   204.1024   208.7244   226.1462
     13  C    Isotropic =   213.7982   Anisotropy =     8.7599
   XX=   218.2054   YX=     0.4940   ZX=    -4.8599
   XY=     1.2940   YY=   213.2353   ZY=    -2.0906
   XZ=    -0.8734   YZ=    -3.9397   ZZ=   209.9539
   Eigenvalues:   207.7494   214.0070   219.6381
     14  N    Isotropic =   302.0267   Anisotropy =    52.2816
   XX=   302.4257   YX=    35.0148   ZX=   -34.8808
   XY=    18.8706   YY=   301.7995   ZY=    30.6910
   XZ=   -25.6452   YZ=    38.3958   ZZ=   301.8548
   Eigenvalues:   240.7360   328.4629   336.8811
     15  C    Isotropic =   205.3706   Anisotropy =    33.0110
   XX=   201.0794   YX=    11.9848   ZX=     3.5640
   XY=    16.2692   YY=   219.7107   ZY=    -4.5230
   XZ=     4.7808   YZ=    -3.1002   ZZ=   195.3219
   Eigenvalues:   188.8187   199.9153   227.3780
     16  C    Isotropic =   224.3453   Anisotropy =     7.6768
   XX=   221.3503   YX=     3.7538   ZX=     3.1251
   XY=    -1.3286   YY=   224.6634   ZY=     2.3295
   XZ=     2.9191   YZ=     1.6963   ZZ=   227.0223
   Eigenvalues:   220.0174   223.5554   229.4632
     17  C    Isotropic =   215.4580   Anisotropy =    18.7143
   XX=   214.4948   YX=     5.5919   ZX=     2.0212
   XY=     9.5109   YY=   223.2933   ZY=     3.8218
   XZ=    -0.6131   YZ=     0.9305   ZZ=   208.5859
   Eigenvalues:   208.1258   210.3141   227.9342
     18  C    Isotropic =   210.8605   Anisotropy =    36.5186
   XX=   195.2938   YX=    -7.0753   ZX=   -14.8405
   XY=     0.1741   YY=   218.4516   ZY=    12.0631
   XZ=   -12.1827   YZ=    13.4659   ZZ=   218.8362
   Eigenvalues:   188.9590   208.4163   235.2063
     19  C    Isotropic =   199.4837   Anisotropy =    44.0462
   XX=   211.9012   YX=    12.3271   ZX=   -25.7167
   XY=    14.3211   YY=   194.5791   ZY=     5.7897
   XZ=   -19.2228   YZ=     3.5780   ZZ=   191.9709
   Eigenvalues:   171.5723   198.0310   228.8478
     20  C    Isotropic =   212.1997   Anisotropy =    22.5027
   XX=   226.2014   YX=     3.2442   ZX=    -0.5216
   XY=     4.2662   YY=   210.4896   ZY=    -4.4243
   XZ=    -1.0460   YZ=    -6.3837   ZZ=   199.9080
   Eigenvalues:   197.6166   211.7810   227.2015
     21  C    Isotropic =   209.1078   Anisotropy =    11.0442
   XX=   214.4368   YX=     0.0028   ZX=    -2.9931
   XY=    -7.7864   YY=   207.4872   ZY=    -3.5223
   XZ=    -4.9127   YZ=    -7.0416   ZZ=   205.3995
   Eigenvalues:   199.0704   211.7825   216.4707
     22  C    Isotropic =    96.4304   Anisotropy =    98.7396
   XX=    15.4552   YX=   -66.7622   ZX=    34.2597
   XY=   -81.8428   YY=   124.5076   ZY=    20.6638
   XZ=    20.9867   YZ=     9.3904   ZZ=   149.3283
   Eigenvalues:   -27.7606   154.7950   162.2568
     23  O    Isotropic =  -134.8898   Anisotropy =   887.6320
   XX=  -162.0918   YX=  -145.9338   ZX=   253.3702
   XY=  -158.3894   YY=  -213.4172   ZY=  -439.3192
   XZ=   235.0602   YZ=  -433.8065   ZZ=   -29.1605
   Eigenvalues:  -571.4573  -290.0770   456.8648
     24  O    Isotropic =   283.8283   Anisotropy =   139.9395
   XX=   243.0881   YX=    -1.6052   ZX=    79.8570
   XY=   109.8024   YY=   351.8085   ZY=   -73.7508
   XZ=   149.1112   YZ=    -0.8778   ZZ=   256.5884
   Eigenvalues:   117.1423   357.2214   377.1213
     25  C    Isotropic =   197.3427   Anisotropy =    57.8963
   XX=   222.0543   YX=     3.3110   ZX=   -24.3169
   XY=     3.3737   YY=   177.8113   ZY=    -2.6465
   XZ=   -24.3378   YZ=    -1.9335   ZZ=   192.1626
   Eigenvalues:   177.4138   178.6741   235.9402
     26  C    Isotropic =   209.9075   Anisotropy =    41.5680
   XX=   208.6308   YX=     9.0474   ZX=    12.9961
   XY=    11.2730   YY=   207.0819   ZY=    17.5009
   XZ=    12.3393   YZ=    17.7816   ZZ=   214.0097
   Eigenvalues:   192.5630   199.5399   237.6195
     27  C    Isotropic =   206.5063   Anisotropy =    15.0501
   XX=   216.4587   YX=    -0.1723   ZX=    -1.5801
   XY=    -0.3553   YY=   201.6890   ZY=    -5.8570
   XZ=    -0.6292   YZ=    -3.9226   ZZ=   201.3713
   Eigenvalues:   196.5896   206.3896   216.5397
     28  C    Isotropic =   119.6883   Anisotropy =   158.1215
   XX=   107.1193   YX=   -36.8768   ZX=    87.3710
   XY=   -32.0922   YY=   103.1141   ZY=   -25.1367
   XZ=    76.0462   YZ=   -20.9687   ZZ=   148.8315
   Eigenvalues:    40.4525    93.5098   225.1027
     29  C    Isotropic =   127.7519   Anisotropy =   146.9920
   XX=   152.3086   YX=     7.6437   ZX=    74.1609
   XY=     7.3036   YY=    81.0400   ZY=   -61.8554
   XZ=    57.8937   YZ=   -48.9799   ZZ=   149.9069
   Eigenvalues:    34.9104   122.5987   225.7465
     30  C    Isotropic =   119.3176   Anisotropy =   152.9890
   XX=   134.2464   YX=   -57.5606   ZX=    54.5871
   XY=   -51.6697   YY=    55.5570   ZY=   -24.7866
   XZ=    42.2644   YZ=   -31.9069   ZZ=   168.1494
   Eigenvalues:    27.5052   109.1372   221.3102
     31  C    Isotropic =   133.7258   Anisotropy =   143.3452
   XX=   158.3220   YX=     0.6593   ZX=    65.5467
   XY=    -6.1967   YY=    93.9672   ZY=   -48.7090
   XZ=    64.2288   YZ=   -52.9842   ZZ=   148.8883
   Eigenvalues:    51.8561   120.0321   229.2893
     32  C    Isotropic =   108.4959   Anisotropy =   130.0715
   XX=   108.5521   YX=   -16.3094   ZX=    69.1005
   XY=   -20.3125   YY=    92.8012   ZY=   -19.7099
   XZ=    79.6336   YZ=    -2.3434   ZZ=   124.1345
   Eigenvalues:    40.7820    89.4956   195.2102
     33  C    Isotropic =   117.3471   Anisotropy =   142.5311
   XX=   146.2327   YX=   -31.3349   ZX=    57.8446
   XY=   -35.3640   YY=    60.5007   ZY=   -15.9367
   XZ=    55.0051   YZ=   -28.2537   ZZ=   145.3079
   Eigenvalues:    48.9492    90.7242   212.3679
     34  N    Isotropic =   272.0576   Anisotropy =    83.8626
   XX=   303.7524   YX=    26.4298   ZX=   -11.0409
   XY=    47.0986   YY=   260.7008   ZY=   -13.3611
   XZ=   -12.7078   YZ=    -7.3604   ZZ=   251.7196
   Eigenvalues:   238.6971   249.5098   327.9660
     35  C    Isotropic =   200.8314   Anisotropy =    13.5827
   XX=   196.4525   YX=    -6.2962   ZX=    -4.6465
   XY=    -5.7230   YY=   199.3085   ZY=     7.7462
   XZ=    -1.5891   YZ=    -1.7787   ZZ=   206.7330
   Eigenvalues:   191.6774   200.9302   209.8865
     36  C    Isotropic =   178.9548   Anisotropy =    38.6391
   XX=   172.6538   YX=     9.6044   ZX=   -16.6090
   XY=     1.8473   YY=   188.9802   ZY=    16.6095
   XZ=    -3.6951   YZ=    26.3337   ZZ=   175.2306
   Eigenvalues:   152.7989   179.3513   204.7143
     37  C    Isotropic =   183.7752   Anisotropy =    43.4854
   XX=   178.5695   YX=   -16.3999   ZX=    13.5790
   XY=   -19.0475   YY=   198.4286   ZY=    -5.0324
   XZ=    19.4809   YZ=    -2.8790   ZZ=   174.3275
   Eigenvalues:   157.5230   181.0371   212.7655
     38  C    Isotropic =   210.9291   Anisotropy =    23.6931
   XX=   209.0705   YX=     0.2205   ZX=    11.0557
   XY=    -3.7836   YY=   207.2555   ZY=    -0.2065
   XZ=    13.6613   YZ=    -8.4506   ZZ=   216.4614
   Eigenvalues:   199.6699   206.3930   226.7245
     39  C    Isotropic =   212.5615   Anisotropy =    20.4684
   XX=   204.3335   YX=    -7.3755   ZX=     0.9159
   XY=    -5.1838   YY=   223.5078   ZY=    -5.2103
   XZ=     2.5821   YZ=    -1.4130   ZZ=   209.8431
   Eigenvalues:   202.3826   209.0947   226.2071
     40  C    Isotropic =   211.3922   Anisotropy =    11.5876
   XX=   209.4027   YX=     4.3630   ZX=     3.0965
   XY=     3.4903   YY=   212.6102   ZY=     4.8016
   XZ=     2.9512   YZ=     3.6314   ZZ=   212.1638
   Eigenvalues:   206.7536   208.3058   219.1173
     41  N    Isotropic =   235.2555   Anisotropy =    23.6446
   XX=   244.6605   YX=     3.9749   ZX=    -9.7985
   XY=    -9.1751   YY=   237.9102   ZY=    -2.1858
   XZ=   -13.9386   YZ=   -24.0467   ZZ=   223.1958
   Eigenvalues:   211.4438   243.3042   251.0186
     42  C    Isotropic =   193.6760   Anisotropy =    49.2084
   XX=   182.4139   YX=    -2.1133   ZX=     0.6092
   XY=    -3.9896   YY=   195.4485   ZY=    29.1265
   XZ=    -3.2522   YZ=    24.2600   ZZ=   203.1655
   Eigenvalues:   172.1308   182.4155   226.4816
     43  C    Isotropic =   219.1433   Anisotropy =    11.9208
   XX=   223.5956   YX=    -1.6315   ZX=     6.4367
   XY=    -1.8822   YY=   222.9504   ZY=     3.5705
   XZ=     8.4685   YZ=     5.9465   ZZ=   210.8839
   Eigenvalues:   205.9410   224.3984   227.0905
     44  C    Isotropic =   214.7133   Anisotropy =    22.4551
   XX=   205.9605   YX=    -0.8905   ZX=     5.3798
   XY=    -3.0683   YY=   222.6705   ZY=    10.7203
   XZ=     2.3221   YZ=     9.1871   ZZ=   215.5089
   Eigenvalues:   202.7531   211.7033   229.6834
     45  C    Isotropic =   206.3941   Anisotropy =    35.7886
   XX=   207.2862   YX=   -18.5106   ZX=    14.4816
   XY=   -14.2107   YY=   214.4227   ZY=     1.8049
   XZ=    19.0718   YZ=     3.5813   ZZ=   197.4734
   Eigenvalues:   180.2569   208.6723   230.2531
     46  C    Isotropic =   190.5694   Anisotropy =    54.5689
   XX=   212.3802   YX=     3.3684   ZX=    23.2751
   XY=    13.7565   YY=   187.8339   ZY=    10.3430
   XZ=    21.9464   YZ=    15.7657   ZZ=   171.4943
   Eigenvalues:   158.7447   186.0150   226.9487
     47  C    Isotropic =   211.0917   Anisotropy =    24.1946
   XX=   203.8085   YX=     6.3842   ZX=    -6.7512
   XY=     6.9093   YY=   204.5417   ZY=     5.5498
   XZ=    -5.6918   YZ=     5.2972   ZZ=   224.9250
   Eigenvalues:   195.2277   210.8260   227.2215
     48  C    Isotropic =   207.6096   Anisotropy =    11.3114
   XX=   204.2866   YX=     2.1679   ZX=    -0.0014
   XY=     1.1355   YY=   205.9177   ZY=    -8.0451
   XZ=    -0.8263   YZ=    -1.3258   ZZ=   212.6244
   Eigenvalues:   202.5238   205.1545   215.1505
     49  C    Isotropic =    98.5226   Anisotropy =   103.5160
   XX=   117.2955   YX=    -6.4763   ZX=   -87.1775
   XY=    -9.3675   YY=   161.5959   ZY=   -33.7857
   XZ=   -72.2973   YZ=   -12.7074   ZZ=    16.6763
   Eigenvalues:   -30.3443   158.3788   167.5333
     50  O    Isotropic =  -133.1456   Anisotropy =   876.2022
   XX=   114.4375   YX=  -396.5112   ZX=  -167.7841
   XY=  -414.6379   YY=  -284.3447   ZY=   186.1275
   XZ=  -152.0758   YZ=   200.5863   ZZ=  -229.5295
   Eigenvalues:  -560.3770  -290.0489   450.9892
     51  O    Isotropic =   286.4077   Anisotropy =   131.8169
   XX=   361.6753   YX=   -25.4937   ZX=    48.4843
   XY=    29.3034   YY=   287.8298   ZY=   168.5361
   XZ=   -32.9754   YZ=    63.8090   ZZ=   209.7180
   Eigenvalues:   126.0978   358.8397   374.2857
     52  C    Isotropic =   197.6343   Anisotropy =    57.3289
   XX=   181.1233   YX=    -5.0161   ZX=    10.0520
   XY=    -4.1538   YY=   183.4952   ZY=   -16.3466
   XZ=     9.5650   YZ=   -16.7688   ZZ=   228.2843
   Eigenvalues:   177.1733   179.8760   235.8535
     53  C    Isotropic =   210.7942   Anisotropy =    42.3887
   XX=   214.4122   YX=   -19.9133   ZX=   -10.0729
   XY=   -19.0198   YY=   213.3171   ZY=    10.0196
   XZ=   -11.2420   YZ=     8.2730   ZZ=   204.6532
   Eigenvalues:   194.2491   199.0801   239.0533
     54  O    Isotropic =    79.3700   Anisotropy =   396.9349
   XX=    20.1993   YX=    95.0428   ZX=  -126.5491
   XY=    74.1502   YY=    44.7308   ZY=  -148.0535
   XZ=  -110.1429   YZ=  -166.1603   ZZ=   173.1800
   Eigenvalues:   -61.6871   -44.1961   343.9933
     55  H    Isotropic =    25.7039   Anisotropy =    13.7607
   XX=    30.0685   YX=    -4.7085   ZX=     2.0042
   XY=    -4.8026   YY=    27.7104   ZY=    -2.4601
   XZ=     4.2359   YZ=    -2.9153   ZZ=    19.3328
   Eigenvalues:    18.2382    23.9959    34.8777
     56  H    Isotropic =    25.7115   Anisotropy =     6.6273
   XX=    28.0705   YX=     1.8911   ZX=     2.9461
   XY=     0.9305   YY=    27.4274   ZY=     0.0487
   XZ=     3.5643   YZ=     0.3115   ZZ=    21.6365
   Eigenvalues:    20.2564    26.7483    30.1297
     57  H    Isotropic =    26.6016   Anisotropy =     7.8917
   XX=    26.7105   YX=    -0.6640   ZX=     3.7170
   XY=    -0.7170   YY=    31.2188   ZY=    -1.3508
   XZ=     3.6602   YZ=    -1.6860   ZZ=    21.8757
   Eigenvalues:    19.7925    28.1497    31.8628
     58  H    Isotropic =    31.9237   Anisotropy =    15.1494
   XX=    41.0368   YX=    -2.5869   ZX=     1.1427
   XY=    -4.2948   YY=    29.5260   ZY=     0.8392
   XZ=     0.3276   YZ=    -1.3948   ZZ=    25.2083
   Eigenvalues:    25.1704    28.5774    42.0233
     59  H    Isotropic =    33.3095   Anisotropy =     8.9777
   XX=    34.3756   YX=    -3.8248   ZX=    -3.7187
   XY=    -5.0736   YY=    34.9496   ZY=     0.9576
   XZ=    -0.6163   YZ=    -1.7285   ZZ=    30.6032
   Eigenvalues:    28.4863    32.1476    39.2946
     60  H    Isotropic =    32.3091   Anisotropy =    13.3799
   XX=    28.4023   YX=     4.6539   ZX=     1.9713
   XY=     3.7969   YY=    30.1686   ZY=     3.9784
   XZ=     3.7568   YZ=     3.4279   ZZ=    38.3564
   Eigenvalues:    24.9676    30.7307    41.2291
     61  H    Isotropic =    32.4583   Anisotropy =    14.5724
   XX=    27.2182   YX=     0.5118   ZX=     1.4334
   XY=     0.5214   YY=    29.0969   ZY=    -3.3529
   XZ=     1.4419   YZ=    -3.8831   ZZ=    41.0600
   Eigenvalues:    26.5946    28.6071    42.1732
     62  H    Isotropic =    32.8492   Anisotropy =    14.0610
   XX=    40.6310   YX=    -0.4207   ZX=    -4.5361
   XY=    -1.1415   YY=    28.2007   ZY=     1.4599
   XZ=    -4.1738   YZ=    -0.0319   ZZ=    29.7158
   Eigenvalues:    27.7463    28.5780    42.2232
     63  H    Isotropic =    31.9489   Anisotropy =    17.7761
   XX=    43.4593   YX=     0.1005   ZX=     2.5993
   XY=     1.4997   YY=    27.9377   ZY=     0.7356
   XZ=     2.1771   YZ=     0.0604   ZZ=    24.4495
   Eigenvalues:    24.1307    27.9163    43.7996
     64  H    Isotropic =    31.8152   Anisotropy =    14.3775
   XX=    27.1649   YX=     1.4124   ZX=     0.7565
   XY=     1.9989   YY=    33.0213   ZY=     7.3743
   XZ=     1.0256   YZ=     6.5178   ZZ=    35.2595
   Eigenvalues:    26.3030    27.7424    41.4002
     65  H    Isotropic =    32.6134   Anisotropy =    16.8149
   XX=    29.3519   YX=     5.9448   ZX=     0.1657
   XY=     5.5177   YY=    41.5089   ZY=    -0.8585
   XZ=     0.1927   YZ=    -1.0163   ZZ=    26.9792
   Eigenvalues:    26.4920    27.5248    43.8233
     66  H    Isotropic =    32.5447   Anisotropy =    12.2908
   XX=    36.1582   YX=    -5.2190   ZX=    -1.1316
   XY=    -4.8161   YY=    34.6667   ZY=     1.7196
   XZ=    -1.0730   YZ=     1.4728   ZZ=    26.8092
   Eigenvalues:    26.4951    30.4004    40.7385
     67  H    Isotropic =    32.7373   Anisotropy =    13.3850
   XX=    40.3141   YX=     1.2296   ZX=    -3.9123
   XY=     1.4054   YY=    29.2737   ZY=    -0.1107
   XZ=    -3.9150   YZ=    -0.8177   ZZ=    28.6241
   Eigenvalues:    27.4326    29.1187    41.6606
     68  H    Isotropic =    32.4960   Anisotropy =    14.5334
   XX=    27.4816   YX=    -0.2453   ZX=     2.8107
   XY=     0.2008   YY=    34.4703   ZY=    -6.7856
   XZ=     2.2805   YZ=    -7.0477   ZZ=    35.5362
   Eigenvalues:    25.9034    29.3997    42.1850
     69  H    Isotropic =    32.3232   Anisotropy =    11.0408
   XX=    26.7265   YX=    -2.9047   ZX=    -0.5601
   XY=    -1.6320   YY=    32.5119   ZY=    -5.2724
   XZ=     0.1312   YZ=    -2.0700   ZZ=    37.7313
   Eigenvalues:    25.7552    31.5307    39.6838
     70  H    Isotropic =    32.9099   Anisotropy =    12.1735
   XX=    40.5206   YX=     1.5928   ZX=    -2.1958
   XY=     1.4790   YY=    27.0681   ZY=    -0.0066
   XZ=    -1.6069   YZ=     1.5092   ZZ=    31.1412
   Eigenvalues:    26.6773    31.0269    41.0256
     71  H    Isotropic =    31.8121   Anisotropy =    15.5949
   XX=    26.9451   YX=     0.4687   ZX=    -3.5949
   XY=     0.6061   YY=    28.1898   ZY=     4.2654
   XZ=    -1.4764   YZ=     5.0357   ZZ=    40.3014
   Eigenvalues:    25.3034    27.9242    42.2087
     72  H    Isotropic =    31.9143   Anisotropy =     9.9768
   XX=    34.6309   YX=    -4.7959   ZX=    -1.3526
   XY=    -4.5128   YY=    32.3053   ZY=     0.7512
   XZ=    -0.9784   YZ=     1.8210   ZZ=    28.8065
   Eigenvalues:    28.2855    28.8918    38.5655
     73  H    Isotropic =    31.4021   Anisotropy =     9.7918
   XX=    32.6116   YX=    -3.5761   ZX=    -1.5662
   XY=    -2.2112   YY=    33.1068   ZY=     4.5764
   XZ=    -1.6681   YZ=     4.4486   ZZ=    28.4879
   Eigenvalues:    25.7253    30.5511    37.9300
     74  H    Isotropic =    32.2501   Anisotropy =    14.7350
   XX=    31.0197   YX=    -2.2002   ZX=     5.4042
   XY=    -1.4976   YY=    32.6988   ZY=    -6.7244
   XZ=     4.8894   YZ=    -7.0770   ZZ=    33.0318
   Eigenvalues:    24.8251    29.8518    42.0734
     75  H    Isotropic =    31.2497   Anisotropy =    12.6560
   XX=    32.4376   YX=     1.7788   ZX=     6.1245
   XY=     1.8243   YY=    27.0626   ZY=    -0.3322
   XZ=     6.0675   YZ=     1.2010   ZZ=    34.2489
   Eigenvalues:    25.9480    28.1141    39.6870
     76  H    Isotropic =    30.5715   Anisotropy =    11.7947
   XX=    35.8718   YX=    -4.1917   ZX=    -0.0228
   XY=    -4.8965   YY=    30.3775   ZY=    -0.5612
   XZ=    -0.2755   YZ=    -0.0555   ZZ=    25.4653
   Eigenvalues:    25.4166    27.8634    38.4347
     77  H    Isotropic =    30.6387   Anisotropy =     7.8732
   XX=    31.2325   YX=     0.6182   ZX=    -1.5792
   XY=     0.9807   YY=    26.0301   ZY=    -1.2147
   XZ=    -2.4946   YZ=    -1.7365   ZZ=    34.6533
   Eigenvalues:    25.7433    30.2853    35.8875
     78  H    Isotropic =    30.5404   Anisotropy =    12.2444
   XX=    34.6861   YX=     5.6211   ZX=     0.5210
   XY=     5.1196   YY=    31.3158   ZY=     1.6095
   XZ=    -0.1976   YZ=     1.2597   ZZ=    25.6193
   Eigenvalues:    25.0617    27.8562    38.7034
     79  H    Isotropic =    31.9605   Anisotropy =    11.1285
   XX=    29.4873   YX=    -0.2697   ZX=    -2.2972
   XY=    -0.5111   YY=    32.6222   ZY=     6.0440
   XZ=    -0.0327   YZ=     6.0098   ZZ=    33.7721
   Eigenvalues:    27.0385    29.4636    39.3795
     80  H    Isotropic =    30.7710   Anisotropy =    14.8493
   XX=    31.7569   YX=     6.6346   ZX=     0.8169
   XY=     6.5919   YY=    35.7531   ZY=    -0.4152
   XZ=     1.6453   YZ=    -0.5871   ZZ=    24.8028
   Eigenvalues:    24.1758    27.4666    40.6705
     81  H    Isotropic =    30.9262   Anisotropy =    11.0320
   XX=    33.1111   YX=    -0.7018   ZX=     6.2006
   XY=    -0.3223   YY=    30.3316   ZY=     1.2568
   XZ=     7.3895   YZ=     0.7451   ZZ=    29.3360
   Eigenvalues:    23.9783    30.5195    38.2809
     82  H    Isotropic =    29.8738   Anisotropy =    12.4931
   XX=    27.3787   YX=     0.4543   ZX=     0.0295
   XY=     0.9524   YY=    36.9492   ZY=    -3.4478
   XZ=    -0.5890   YZ=    -4.4104   ZZ=    25.2935
   Eigenvalues:    24.0915    27.3273    38.2025
     83  H    Isotropic =    30.0151   Anisotropy =     8.0238
   XX=    26.4248   YX=     0.7769   ZX=     0.5082
   XY=     0.9118   YY=    28.8364   ZY=     1.2510
   XZ=     1.1043   YZ=     2.2147   ZZ=    34.7841
   Eigenvalues:    26.1503    28.5307    35.3643
     84  H    Isotropic =    25.8895   Anisotropy =    11.9389
   XX=    29.8213   YX=     4.6786   ZX=    -2.1225
   XY=     4.0192   YY=    26.8274   ZY=    -2.1260
   XZ=    -3.5305   YZ=    -1.8142   ZZ=    21.0200
   Eigenvalues:    20.0944    23.7254    33.8488
     85  H    Isotropic =    25.7680   Anisotropy =     6.8443
   XX=    26.9819   YX=    -1.1925   ZX=    -3.4745
   XY=    -0.1776   YY=    27.4962   ZY=     1.5638
   XZ=    -4.5910   YZ=     2.1294   ZZ=    22.8258
   Eigenvalues:    20.1570    26.8162    30.3308
     86  H    Isotropic =    26.5157   Anisotropy =     7.7476
   XX=    26.7780   YX=     2.9094   ZX=    -2.9740
   XY=     2.9442   YY=    29.9090   ZY=     1.8276
   XZ=    -4.1099   YZ=     1.6172   ZZ=    22.8600
   Eigenvalues:    19.8658    28.0004    31.6807
     87  H    Isotropic =    31.5754   Anisotropy =     5.7337
   XX=    31.9154   YX=     1.9307   ZX=    -2.6649
   XY=     1.2186   YY=    30.4568   ZY=    -0.8011
   XZ=    -3.3453   YZ=     0.7575   ZZ=    32.3539
   Eigenvalues:    28.4237    30.9046    35.3978
     88  H    Isotropic =    32.9789   Anisotropy =     8.8237
   XX=    30.9298   YX=     3.3642   ZX=     1.3690
   XY=     0.4959   YY=    37.1164   ZY=    -3.9361
   XZ=     3.9678   YZ=    -3.3694   ZZ=    30.8904
   Eigenvalues:    26.7097    33.3655    38.8614
     89  H    Isotropic =    32.0473   Anisotropy =    13.8267
   XX=    37.8576   YX=    -5.7388   ZX=     0.3430
   XY=    -6.3424   YY=    30.5466   ZY=     2.0374
   XZ=     1.8186   YZ=     2.5252   ZZ=    27.7375
   Eigenvalues:    24.9031    29.9736    41.2651
     90  H    Isotropic =    32.1240   Anisotropy =    15.9730
   XX=    38.3386   YX=    -1.1801   ZX=     7.2918
   XY=    -1.8521   YY=    28.0297   ZY=     0.6117
   XZ=     7.6051   YZ=     0.6599   ZZ=    30.0037
   Eigenvalues:    25.0454    28.5539    42.7726
     91  H    Isotropic =    32.7796   Anisotropy =    11.7249
   XX=    28.7199   YX=     1.4951   ZX=    -1.3738
   XY=    -0.0496   YY=    30.4715   ZY=    -4.3177
   XZ=    -0.7436   YZ=    -2.9442   ZZ=    39.1472
   Eigenvalues:    28.4482    29.2943    40.5962
     92  H    Isotropic =    30.7590   Anisotropy =    13.1095
   XX=    32.0366   YX=    -5.6457   ZX=     2.4156
   XY=    -5.1393   YY=    35.6008   ZY=     0.9729
   XZ=     2.2601   YZ=     2.1625   ZZ=    24.6397
   Eigenvalues:    23.0762    29.7022    39.4987
     93  H    Isotropic =    31.7652   Anisotropy =     9.9729
   XX=    34.0238   YX=     0.6332   ZX=    -4.3730
   XY=     0.4691   YY=    28.0501   ZY=     2.9623
   XZ=    -4.8506   YZ=     1.9764   ZZ=    33.2219
   Eigenvalues:    26.1981    30.6838    38.4138
     94  H    Isotropic =    32.2282   Anisotropy =    17.2165
   XX=    28.0139   YX=    -0.4955   ZX=     1.1306
   XY=    -0.1259   YY=    34.4551   ZY=     9.1072
   XZ=     1.7031   YZ=     9.5555   ZZ=    34.2158
   Eigenvalues:    24.5633    28.4155    43.7059
     95  H    Isotropic =    31.0322   Anisotropy =    12.9019
   XX=    29.3321   YX=     4.5486   ZX=    -1.9742
   XY=     4.7515   YY=    36.1228   ZY=    -3.2788
   XZ=    -1.6453   YZ=    -3.2060   ZZ=    27.6416
   Eigenvalues:    26.4562    27.0069    39.6334
     96  H    Isotropic =    32.5552   Anisotropy =    12.3471
   XX=    26.7512   YX=    -0.7152   ZX=     0.5576
   XY=    -1.1580   YY=    30.1839   ZY=    -0.5355
   XZ=     0.9795   YZ=    -0.1334   ZZ=    40.7304
   Eigenvalues:    26.4814    30.3975    40.7866
     97  H    Isotropic =    32.0320   Anisotropy =    15.5345
   XX=    38.4021   YX=     4.1934   ZX=     4.3354
   XY=     4.2024   YY=    30.0665   ZY=     4.1182
   XZ=     4.5495   YZ=     4.1327   ZZ=    27.6272
   Eigenvalues:    24.4333    29.2743    42.3883
     98  H    Isotropic =    32.7777   Anisotropy =    11.1515
   XX=    37.7430   YX=     0.8112   ZX=     5.8026
   XY=     2.3655   YY=    31.4492   ZY=     2.6457
   XZ=     3.6509   YZ=    -0.8148   ZZ=    29.1408
   Eigenvalues:    27.0420    31.0790    40.2120
     99  H    Isotropic =    30.6547   Anisotropy =    12.3439
   XX=    29.9928   YX=    -1.5834   ZX=    -3.2858
   XY=    -2.2239   YY=    25.1809   ZY=    -2.0334
   XZ=    -4.6818   YZ=    -3.7240   ZZ=    36.7903
   Eigenvalues:    23.2213    29.8588    38.8840
    100  H    Isotropic =    31.1941   Anisotropy =    16.1588
   XX=    41.3618   YX=     0.0791   ZX=    -3.2234
   XY=     1.1572   YY=    27.5833   ZY=     0.0764
   XZ=    -3.0630   YZ=    -1.0504   ZZ=    24.6371
   Eigenvalues:    24.0274    27.5882    41.9666
    101  H    Isotropic =    30.8557   Anisotropy =    16.5436
   XX=    37.2024   YX=    -6.4446   ZX=     5.2029
   XY=    -5.0660   YY=    29.7002   ZY=    -1.8324
   XZ=     3.2538   YZ=    -3.6951   ZZ=    25.6644
   Eigenvalues:    24.0399    26.6425    41.8848
    102  H    Isotropic =    30.0185   Anisotropy =    11.1625
   XX=    26.9524   YX=     1.8311   ZX=    -3.7263
   XY=     3.1527   YY=    35.1736   ZY=    -2.3601
   XZ=    -2.6605   YZ=    -3.7451   ZZ=    27.9296
   Eigenvalues:    24.2093    28.3861    37.4602
    103  H    Isotropic =    31.6936   Anisotropy =    15.2783
   XX=    41.0712   YX=     3.5536   ZX=     0.3517
   XY=     3.2652   YY=    26.5495   ZY=     1.4277
   XZ=     0.6871   YZ=     1.4799   ZZ=    27.4603
   Eigenvalues:    25.0648    28.1370    41.8792
    104  H    Isotropic =    31.3620   Anisotropy =    13.2975
   XX=    37.3076   YX=    -3.0701   ZX=    -3.7463
   XY=    -3.3408   YY=    29.1035   ZY=     1.1453
   XZ=    -5.1561   YZ=     2.3231   ZZ=    27.6750
   Eigenvalues:    25.8451    28.0139    40.2270
    105  H    Isotropic =    30.6961   Anisotropy =    10.0743
   XX=    29.6968   YX=     2.9630   ZX=     3.5283
   XY=     2.8060   YY=    27.9835   ZY=     2.1113
   XZ=     3.1896   YZ=     2.5539   ZZ=    34.4079
   Eigenvalues:    25.8278    28.8482    37.4123
    106  H    Isotropic =    30.5453   Anisotropy =     8.2953
   XX=    28.3980   YX=    -3.7143   ZX=     0.7699
   XY=    -4.2830   YY=    32.1309   ZY=    -2.9683
   XZ=    -0.0686   YZ=    -2.7399   ZZ=    31.1069
   Eigenvalues:    25.5350    30.0253    36.0755
    107  H    Isotropic =    30.5940   Anisotropy =    12.9076
   XX=    30.5898   YX=     0.1869   ZX=    -5.6247
   XY=     0.7840   YY=    25.7154   ZY=    -1.2243
   XZ=    -5.4724   YZ=    -0.9557   ZZ=    35.4768
   Eigenvalues:    25.5869    26.9961    39.1990
    108  H    Isotropic =    31.2916   Anisotropy =    11.7444
   XX=    33.9683   YX=    -0.3469   ZX=    -7.2406
   XY=    -0.1031   YY=    30.9075   ZY=     1.3583
   XZ=    -6.9845   YZ=     1.1823   ZZ=    28.9989
   Eigenvalues:    23.8327    30.9208    39.1212
    109  H    Isotropic =    30.6983   Anisotropy =    14.4981
   XX=    27.1304   YX=     0.3968   ZX=    -1.2204
   XY=     0.8729   YY=    33.6074   ZY=     7.8293
   XZ=    -1.0595   YZ=     7.7612   ZZ=    31.3573
   Eigenvalues:    24.0721    27.6593    40.3637
    110  H    Isotropic =    31.8904   Anisotropy =    12.4838
   XX=    31.5875   YX=    -6.0945   ZX=     1.0441
   XY=    -6.1697   YY=    35.2737   ZY=    -1.1546
   XZ=     2.3383   YZ=    -1.5079   ZZ=    28.8100
   Eigenvalues:    26.8348    28.6234    40.2130
 End of Minotr F.D. properties file   721 does not exist.
 End of Minotr F.D. properties file   722 does not exist.
 End of Minotr F.D. properties file   788 does not exist.
 Hyperfine terms turned off by default for NAtoms > 100.

 **********************************************************************

            Population analysis using the SCF Density.

 **********************************************************************

 Orbital symmetries:
       Occupied  (A) (A) (A) (A) (A) (A) (A) (A) (A) (A) (A) (A)
                 (A) (A) (A) (A) (A) (A) (A) (A) (A) (A) (A) (A)
                 (A) (A) (A) (A) (A) (A) (A) (A) (A) (A) (A) (A)
                 (A) (A) (A) (A) (A) (A) (A) (A) (A) (A) (A) (A)
                 (A) (A) (A) (A) (A) (A) (A) (A) (A) (A) (A) (A)
                 (A) (A) (A) (A) (A) (A) (A) (A) (A) (A) (A) (A)
                 (A) (A) (A) (A) (A) (A) (A) (A) (A) (A) (A) (A)
                 (A) (A) (A) (A) (A) (A) (A) (A) (A) (A) (A) (A)
                 (A) (A) (A) (A) (A) (A) (A) (A) (A) (A) (A) (A)
                 (A) (A) (A) (A) (A) (A) (A) (A) (A) (A) (A) (A)
                 (A) (A) (A) (A) (A) (A) (A) (A) (A) (A) (A) (A)
                 (A) (A) (A) (A) (A) (A) (A) (A) (A) (A) (A) (A)
                 (A) (A) (A) (A) (A) (A) (A) (A) (A) (A) (A) (A)
                 (A) (A) (A) (A) (A) (A) (A) (A) (A) (A) (A) (A)
                 (A) (A) (A) (A) (A) (A) (A) (A) (A) (A) (A) (A)
                 (A) (A) (A) (A) (A) (A) (A) (A) (A) (A) (A) (A)
                 (A) (A) (A) (A) (A)
       Virtual   (A) (A) (A) (A) (A) (A) (A) (A) (A) (A) (A) (A)
                 (A) (A) (A) (A) (A) (A) (A) (A) (A) (A) (A) (A)
                 (A) (A) (A) (A) (A) (A) (A) (A) (A) (A) (A) (A)
                 (A) (A) (A) (A) (A) (A) (A) (A) (A) (A) (A) (A)
                 (A) (A) (A) (A) (A) (A) (A) (A) (A) (A) (A) (A)
                 (A) (A) (A) (A) (A) (A) (A) (A) (A) (A) (A) (A)
                 (A) (A) (A) (A) (A) (A) (A) (A) (A) (A) (A) (A)
                 (A) (A) (A) (A) (A) (A) (A) (A) (A) (A) (A) (A)
                 (A) (A) (A) (A) (A) (A) (A) (A) (A) (A) (A) (A)
                 (A) (A) (A) (A) (A) (A) (A) (A) (A) (A) (A) (A)
                 (A) (A) (A) (A) (A) (A) (A) (A) (A)
 The electronic state is 1-A.
 Alpha  occ. eigenvalues --  -20.30661 -20.29103 -20.24639 -20.22316 -19.92038
 Alpha  occ. eigenvalues --  -15.48280 -15.33608 -15.33565 -15.30845 -11.16553
 Alpha  occ. eigenvalues --  -11.14748 -11.10574 -11.09674 -11.09478 -11.09477
 Alpha  occ. eigenvalues --  -11.09314 -11.09252 -11.08785 -11.08129 -11.07929
 Alpha  occ. eigenvalues --  -11.07234 -11.07121 -11.06570 -11.06468 -11.06315
 Alpha  occ. eigenvalues --  -11.06250 -11.05902 -11.05783 -11.05691 -11.05633
 Alpha  occ. eigenvalues --  -11.05445 -11.05137 -11.04982 -11.04749 -11.04587
 Alpha  occ. eigenvalues --  -11.04457 -11.04254 -11.04220 -11.04064 -11.03978
 Alpha  occ. eigenvalues --  -11.03913 -11.03791 -11.03784 -11.03187 -11.02366
 Alpha  occ. eigenvalues --  -11.02248 -11.02202 -11.02055 -11.01959 -11.01844
 Alpha  occ. eigenvalues --  -11.01832 -11.01605 -11.01556 -11.01390  -1.37881
 Alpha  occ. eigenvalues --   -1.36183  -1.29740  -1.27687  -1.25473  -1.21499
 Alpha  occ. eigenvalues --   -1.20915  -1.18996  -1.10590  -1.09753  -1.09052
 Alpha  occ. eigenvalues --   -1.07638  -1.05885  -1.05008  -1.02797  -1.00893
 Alpha  occ. eigenvalues --   -0.99230  -0.98831  -0.98528  -0.97497  -0.96878
 Alpha  occ. eigenvalues --   -0.96566  -0.95320  -0.94611  -0.94192  -0.92409
 Alpha  occ. eigenvalues --   -0.91680  -0.91515  -0.90298  -0.89551  -0.88023
 Alpha  occ. eigenvalues --   -0.86504  -0.84872  -0.82964  -0.81970  -0.80996
 Alpha  occ. eigenvalues --   -0.80491  -0.79739  -0.78421  -0.77760  -0.77611
 Alpha  occ. eigenvalues --   -0.77331  -0.74602  -0.74152  -0.72871  -0.72308
 Alpha  occ. eigenvalues --   -0.71387  -0.70319  -0.69474  -0.68587  -0.66014
 Alpha  occ. eigenvalues --   -0.65419  -0.64950  -0.64855  -0.63679  -0.63327
 Alpha  occ. eigenvalues --   -0.62505  -0.62232  -0.61657  -0.61391  -0.61231
 Alpha  occ. eigenvalues --   -0.60668  -0.59847  -0.59475  -0.58855  -0.58575
 Alpha  occ. eigenvalues --   -0.58265  -0.58179  -0.57902  -0.57879  -0.57273
 Alpha  occ. eigenvalues --   -0.56890  -0.56771  -0.56514  -0.55870  -0.55441
 Alpha  occ. eigenvalues --   -0.54889  -0.54828  -0.54730  -0.54612  -0.54574
 Alpha  occ. eigenvalues --   -0.54205  -0.53956  -0.53452  -0.52635  -0.51890
 Alpha  occ. eigenvalues --   -0.51734  -0.51135  -0.51046  -0.50730  -0.50460
 Alpha  occ. eigenvalues --   -0.50034  -0.49682  -0.49530  -0.49132  -0.48667
 Alpha  occ. eigenvalues --   -0.48367  -0.48014  -0.47719  -0.47396  -0.47230
 Alpha  occ. eigenvalues --   -0.46409  -0.46321  -0.46008  -0.45621  -0.45223
 Alpha  occ. eigenvalues --   -0.44940  -0.44863  -0.44524  -0.44415  -0.43955
 Alpha  occ. eigenvalues --   -0.43671  -0.43483  -0.43180  -0.42673  -0.42597
 Alpha  occ. eigenvalues --   -0.42404  -0.41992  -0.41540  -0.41159  -0.40727
 Alpha  occ. eigenvalues --   -0.40637  -0.39954  -0.38821  -0.38529  -0.38203
 Alpha  occ. eigenvalues --   -0.37511  -0.37298  -0.36561  -0.35644  -0.34224
 Alpha  occ. eigenvalues --   -0.33349  -0.33106  -0.32115  -0.31364  -0.30883
 Alpha  occ. eigenvalues --   -0.27412  -0.27183  -0.26371  -0.21327  -0.20389
 Alpha  occ. eigenvalues --   -0.15974  -0.15479
 Alpha virt. eigenvalues --    0.26533   0.26844   0.27371   0.29259   0.30423
 Alpha virt. eigenvalues --    0.32835   0.45549   0.47736   0.48252   0.49155
 Alpha virt. eigenvalues --    0.49310   0.50015   0.50496   0.51725   0.52198
 Alpha virt. eigenvalues --    0.53675   0.54114   0.54969   0.55543   0.55864
 Alpha virt. eigenvalues --    0.56792   0.57249   0.57666   0.58120   0.59276
 Alpha virt. eigenvalues --    0.59419   0.59760   0.59842   0.60205   0.60872
 Alpha virt. eigenvalues --    0.61231   0.61500   0.62417   0.62750   0.62898
 Alpha virt. eigenvalues --    0.63129   0.63446   0.63704   0.64269   0.64476
 Alpha virt. eigenvalues --    0.64727   0.64810   0.65135   0.65634   0.65880
 Alpha virt. eigenvalues --    0.65971   0.66341   0.66727   0.66901   0.67070
 Alpha virt. eigenvalues --    0.67229   0.67625   0.67716   0.67974   0.68324
 Alpha virt. eigenvalues --    0.68347   0.68926   0.69126   0.69549   0.69821
 Alpha virt. eigenvalues --    0.70145   0.70321   0.70447   0.70894   0.70976
 Alpha virt. eigenvalues --    0.71117   0.71362   0.71575   0.71883   0.72108
 Alpha virt. eigenvalues --    0.72597   0.72886   0.73211   0.73560   0.73700
 Alpha virt. eigenvalues --    0.74055   0.74194   0.74499   0.74726   0.74871
 Alpha virt. eigenvalues --    0.75138   0.75340   0.75797   0.76028   0.76184
 Alpha virt. eigenvalues --    0.76495   0.76754   0.77190   0.77393   0.77712
 Alpha virt. eigenvalues --    0.77881   0.78107   0.78547   0.79016   0.79356
 Alpha virt. eigenvalues --    0.79394   0.79644   0.79982   0.80409   0.80779
 Alpha virt. eigenvalues --    0.81152   0.81253   0.81585   0.81665   0.82331
 Alpha virt. eigenvalues --    0.82778   0.83924   0.84197   0.84430   0.84594
 Alpha virt. eigenvalues --    0.85619   0.86103   0.86265   0.87413   0.87709
 Alpha virt. eigenvalues --    0.88161   0.89299   0.90567   0.91306   0.94294
 Alpha virt. eigenvalues --    0.94560   0.95356   0.97946   1.01366   1.02245
 Alpha virt. eigenvalues --    1.10381   1.11413   1.15830   1.16077
          Condensed to atoms (all electrons):
 Mulliken charges:
               1
     1  C   -0.074235
     2  C    0.000507
     3  C   -0.061408
     4  C   -0.089432
     5  C    0.089393
     6  C   -0.012166
     7  N   -0.285802
     8  C    0.017742
     9  C    0.127883
    10  C    0.039901
    11  C   -0.115162
    12  C   -0.105533
    13  C    0.027728
    14  N   -0.291723
    15  C   -0.015651
    16  C   -0.108509
    17  C   -0.102098
    18  C   -0.105908
    19  C   -0.020101
    20  C   -0.110439
    21  C   -0.066447
    22  C    0.319580
    23  O   -0.276922
    24  O   -0.255383
    25  C   -0.055775
    26  C   -0.079376
    27  C   -0.109469
    28  C    0.001886
    29  C   -0.079483
    30  C   -0.061784
    31  C   -0.089743
    32  C    0.093537
    33  C   -0.014059
    34  N   -0.279225
    35  C    0.015492
    36  C    0.135074
    37  C    0.039726
    38  C   -0.116024
    39  C   -0.105446
    40  C    0.040664
    41  N   -0.080628
    42  C   -0.002973
    43  C   -0.097103
    44  C   -0.099021
    45  C   -0.095689
    46  C   -0.005648
    47  C   -0.098972
    48  C   -0.059260
    49  C    0.324601
    50  O   -0.273266
    51  O   -0.255578
    52  C   -0.055672
    53  C   -0.077469
    54  O   -0.461612
    55  H    0.061566
    56  H    0.055925
    57  H    0.058430
    58  H    0.054039
    59  H    0.055193
    60  H    0.051140
    61  H    0.049055
    62  H    0.050852
    63  H    0.050288
    64  H    0.061417
    65  H    0.055434
    66  H    0.051304
    67  H    0.050445
    68  H    0.052923
    69  H    0.062856
    70  H    0.064428
    71  H    0.056647
    72  H    0.051901
    73  H    0.067835
    74  H    0.051918
    75  H    0.065237
    76  H    0.072437
    77  H    0.074729
    78  H    0.077361
    79  H    0.055703
    80  H    0.071867
    81  H    0.076633
    82  H    0.057904
    83  H    0.057821
    84  H    0.053573
    85  H    0.056776
    86  H    0.059988
    87  H    0.054537
    88  H    0.054523
    89  H    0.049743
    90  H    0.053442
    91  H    0.047141
    92  H    0.084466
    93  H    0.056706
    94  H    0.058003
    95  H    0.081976
    96  H    0.046786
    97  H    0.058930
    98  H    0.066062
    99  H    0.092210
   100  H    0.060791
   101  H    0.087746
   102  H    0.101250
   103  H    0.045459
   104  H    0.061673
   105  H    0.073954
   106  H    0.076255
   107  H    0.070260
   108  H    0.071975
   109  H    0.073763
   110  H    0.055203
 Sum of Mulliken charges =  -0.00000
 Mulliken charges with hydrogens summed into heavy atoms:
               1
     1  C   -0.012669
     2  C    0.000507
     3  C   -0.005484
     4  C   -0.031002
     5  C    0.089393
     6  C   -0.012166
     7  N   -0.285802
     8  C    0.017742
     9  C    0.127883
    10  C    0.093940
    11  C   -0.008828
    12  C   -0.005626
    13  C    0.027728
    14  N   -0.291723
    15  C    0.096054
    16  C   -0.001771
    17  C    0.001270
    18  C    0.021376
    19  C    0.088447
    20  C    0.009315
    21  C   -0.001209
    22  C    0.319580
    23  O   -0.276922
    24  O   -0.255383
    25  C    0.168752
    26  C    0.124827
    27  C    0.006256
    28  C    0.001886
    29  C   -0.025910
    30  C   -0.005008
    31  C   -0.029755
    32  C    0.093537
    33  C   -0.014059
    34  N   -0.279225
    35  C    0.015492
    36  C    0.135074
    37  C    0.094263
    38  C   -0.011758
    39  C   -0.004864
    40  C    0.040664
    41  N   -0.080628
    42  C    0.138199
    43  C    0.042876
    44  C    0.006695
    45  C    0.062583
    46  C    0.142888
    47  C    0.047737
    48  C    0.002413
    49  C    0.324601
    50  O   -0.273266
    51  O   -0.255578
    52  C    0.164797
    53  C    0.123472
    54  O   -0.461612
 Electronic spatial extent (au):  <R**2>=          36892.4698
 Charge=             -0.0000 electrons
 Dipole moment (field-independent basis, Debye):
    X=              1.9647    Y=              2.3897    Z=             -1.0622  Tot=              3.2709
 Quadrupole moment (field-independent basis, Debye-Ang):
   XX=           -295.7699   YY=           -305.6402   ZZ=           -293.3455
   XY=            -14.6473   XZ=             20.8715   YZ=              9.3873
 Traceless Quadrupole moment (field-independent basis, Debye-Ang):
   XX=              2.4820   YY=             -7.3883   ZZ=              4.9064
   XY=            -14.6473   XZ=             20.8715   YZ=              9.3873
 Octapole moment (field-independent basis, Debye-Ang**2):
  XXX=            103.4702  YYY=             11.6442  ZZZ=             56.6581  XYY=             37.0194
  XXY=            129.3949  XXZ=             -4.3160  XZZ=             -4.2074  YZZ=            -18.0129
  YYZ=             -4.9561  XYZ=            -57.5913
 Hexadecapole moment (field-independent basis, Debye-Ang**3):
 XXXX=         -30942.1781 YYYY=          -9002.5286 ZZZZ=          -4505.7660 XXXY=           -178.3283
 XXXZ=            326.3415 YYYX=            -38.8343 YYYZ=            123.7303 ZZZX=           -209.0181
 ZZZY=             33.8620 XXYY=          -7162.1200 XXZZ=          -6134.7578 YYZZ=          -2315.1521
 XXYZ=            210.0215 YYXZ=             99.4749 ZZXY=             -6.6985
 N-N= 8.180774581934D+03 E-N=-2.173777812680D+04  KE= 2.279099699353D+03
 ******************************Gaussian NBO Version 3.1******************************
             N A T U R A L   A T O M I C   O R B I T A L   A N D
          N A T U R A L   B O N D   O R B I T A L   A N A L Y S I S
 ******************************Gaussian NBO Version 3.1******************************
       /RESON  / : Allow strongly delocalized NBO set
       /NLMO   / : Form Natural Localized Molecular Orbitals
       /NMR /    : Analyze NMR Sheilding Tensor 

 Analyzing the SCF density

 Job title: Pleiokomenine_C_2                                               

 Storage needed:    355564 in NPA,    438187 in NBO,   2133784 in NLMO ( 104796000 available)
 GSVD:  LWork=     -108884 too small for GESVD, short by      536270 words or      536270 for optimal perf.


 NATURAL POPULATIONS:  Natural atomic orbital occupancies 
                                                          
   NAO  Atom  No  lang   Type(AO)    Occupancy      Energy
 ----------------------------------------------------------
     1    C    1  S      Cor( 1S)     1.99993     -10.94315
     2    C    1  S      Val( 2S)     1.07794      -0.17387
     3    C    1  px     Val( 2p)     0.99393       0.11399
     4    C    1  py     Val( 2p)     0.98076       0.15983
     5    C    1  pz     Val( 2p)     1.00341       0.05231
 
     6    C    2  S      Cor( 1S)     1.99990     -10.95469
     7    C    2  S      Val( 2S)     1.07736      -0.18123
     8    C    2  px     Val( 2p)     0.95163       0.13694
     9    C    2  py     Val( 2p)     0.95907       0.17789
    10    C    2  pz     Val( 2p)     0.99784       0.05651
 
    11    C    3  S      Cor( 1S)     1.99994     -10.94644
    12    C    3  S      Val( 2S)     1.08378      -0.18078
    13    C    3  px     Val( 2p)     0.97838       0.12628
    14    C    3  py     Val( 2p)     0.97505       0.15928
    15    C    3  pz     Val( 2p)     0.99592       0.05241
 
    16    C    4  S      Cor( 1S)     1.99993     -10.93961
    17    C    4  S      Val( 2S)     1.07218      -0.17210
    18    C    4  px     Val( 2p)     1.00243       0.11466
    19    C    4  py     Val( 2p)     0.97198       0.16425
    20    C    4  pz     Val( 2p)     1.03963       0.03969
 
    21    C    5  S      Cor( 1S)     1.99985     -10.98642
    22    C    5  S      Val( 2S)     1.05926      -0.18272
    23    C    5  px     Val( 2p)     0.89778       0.12932
    24    C    5  py     Val( 2p)     0.97051       0.16411
    25    C    5  pz     Val( 2p)     0.96001       0.05336
 
    26    C    6  S      Cor( 1S)     1.99990     -10.94474
    27    C    6  S      Val( 2S)     1.08244      -0.18512
    28    C    6  px     Val( 2p)     0.98337       0.13484
    29    C    6  py     Val( 2p)     0.94921       0.15307
    30    C    6  pz     Val( 2p)     1.00879       0.05956
 
    31    N    7  S      Cor( 1S)     1.99998     -15.26854
    32    N    7  S      Val( 2S)     1.40633      -0.59452
    33    N    7  px     Val( 2p)     1.42751      -0.11900
    34    N    7  py     Val( 2p)     1.07437       0.01226
    35    N    7  pz     Val( 2p)     1.36598      -0.10044
 
    36    C    8  S      Cor( 1S)     1.99996     -11.00657
    37    C    8  S      Val( 2S)     1.10892      -0.23176
    38    C    8  px     Val( 2p)     0.97178       0.07473
    39    C    8  py     Val( 2p)     0.96059       0.11292
    40    C    8  pz     Val( 2p)     0.93941       0.10822
 
    41    C    9  S      Cor( 1S)     1.99996     -11.05038
    42    C    9  S      Val( 2S)     1.11233      -0.25669
    43    C    9  px     Val( 2p)     0.92313       0.08557
    44    C    9  py     Val( 2p)     0.84250       0.12560
    45    C    9  pz     Val( 2p)     0.95052       0.08185
 
    46    C   10  S      Cor( 1S)     1.99993     -11.01881
    47    C   10  S      Val( 2S)     1.09765      -0.22118
    48    C   10  px     Val( 2p)     0.99377       0.08452
    49    C   10  py     Val( 2p)     0.93904       0.08269
    50    C   10  pz     Val( 2p)     0.89585       0.11846
 
    51    C   11  S      Cor( 1S)     1.99994     -10.98040
    52    C   11  S      Val( 2S)     1.10400      -0.21501
    53    C   11  px     Val( 2p)     1.00102       0.08248
    54    C   11  py     Val( 2p)     0.98947       0.08718
    55    C   11  pz     Val( 2p)     0.99095       0.08205
 
    56    C   12  S      Cor( 1S)     1.99996     -10.97844
    57    C   12  S      Val( 2S)     1.09126      -0.20057
    58    C   12  px     Val( 2p)     1.01062       0.08678
    59    C   12  py     Val( 2p)     0.97827       0.08809
    60    C   12  pz     Val( 2p)     0.99381       0.08941
 
    61    C   13  S      Cor( 1S)     1.99998     -11.00550
    62    C   13  S      Val( 2S)     1.10481      -0.22905
    63    C   13  px     Val( 2p)     0.93870       0.10914
    64    C   13  py     Val( 2p)     0.95031       0.10810
    65    C   13  pz     Val( 2p)     0.95621       0.09771
 
    66    N   14  S      Cor( 1S)     1.99999     -15.24165
    67    N   14  S      Val( 2S)     1.42896      -0.58632
    68    N   14  px     Val( 2p)     1.33838      -0.07002
    69    N   14  py     Val( 2p)     1.21285      -0.01928
    70    N   14  pz     Val( 2p)     1.29951      -0.05854
 
    71    C   15  S      Cor( 1S)     1.99993     -11.01112
    72    C   15  S      Val( 2S)     1.06954      -0.19295
    73    C   15  px     Val( 2p)     0.99870       0.07497
    74    C   15  py     Val( 2p)     0.89483       0.11740
    75    C   15  pz     Val( 2p)     0.99887       0.07974
 
    76    C   16  S      Cor( 1S)     1.99997     -10.97839
    77    C   16  S      Val( 2S)     1.08079      -0.19163
    78    C   16  px     Val( 2p)     1.01884       0.08636
    79    C   16  py     Val( 2p)     0.99690       0.08812
    80    C   16  pz     Val( 2p)     0.97862       0.09177
 
    81    C   17  S      Cor( 1S)     1.99996     -10.98069
    82    C   17  S      Val( 2S)     1.08570      -0.19591
    83    C   17  px     Val( 2p)     1.01090       0.08612
    84    C   17  py     Val( 2p)     0.98275       0.08997
    85    C   17  pz     Val( 2p)     0.98920       0.09046
 
    86    C   18  S      Cor( 1S)     1.99995     -10.97590
    87    C   18  S      Val( 2S)     1.09172      -0.19621
    88    C   18  px     Val( 2p)     1.01993       0.09374
    89    C   18  py     Val( 2p)     0.98202       0.08734
    90    C   18  pz     Val( 2p)     0.98260       0.09094
 
    91    C   19  S      Cor( 1S)     1.99994     -11.00102
    92    C   19  S      Val( 2S)     1.07257      -0.18674
    93    C   19  px     Val( 2p)     0.90132       0.11803
    94    C   19  py     Val( 2p)     0.99348       0.08373
    95    C   19  pz     Val( 2p)     0.99925       0.08476
 
    96    C   20  S      Cor( 1S)     1.99992     -10.98534
    97    C   20  S      Val( 2S)     1.09991      -0.21330
    98    C   20  px     Val( 2p)     0.97079       0.08307
    99    C   20  py     Val( 2p)     0.96897       0.09146
   100    C   20  pz     Val( 2p)     1.03388       0.07377
 
   101    C   21  S      Cor( 1S)     1.99994     -11.00922
   102    C   21  S      Val( 2S)     1.11094      -0.23990
   103    C   21  px     Val( 2p)     0.97274       0.08051
   104    C   21  py     Val( 2p)     0.99152       0.06768
   105    C   21  pz     Val( 2p)     1.00924       0.06318
 
   106    C   22  S      Cor( 1S)     1.99991     -11.11261
   107    C   22  S      Val( 2S)     1.05476      -0.26146
   108    C   22  px     Val( 2p)     0.88015       0.07428
   109    C   22  py     Val( 2p)     0.80015       0.12615
   110    C   22  pz     Val( 2p)     0.86221       0.07290
 
   111    O   23  S      Cor( 1S)     1.99999     -20.09902
   112    O   23  S      Val( 2S)     1.80823      -1.05880
   113    O   23  px     Val( 2p)     1.75944      -0.29285
   114    O   23  py     Val( 2p)     1.41167      -0.15680
   115    O   23  pz     Val( 2p)     1.33175      -0.13296
 
   116    O   24  S      Cor( 1S)     1.99999     -20.21596
   117    O   24  S      Val( 2S)     1.72996      -1.02848
   118    O   24  px     Val( 2p)     1.28191      -0.12444
   119    O   24  py     Val( 2p)     1.59336      -0.26399
   120    O   24  pz     Val( 2p)     1.66172      -0.29784
 
   121    C   25  S      Cor( 1S)     1.99984     -11.04606
   122    C   25  S      Val( 2S)     1.07702      -0.22773
   123    C   25  px     Val( 2p)     0.87433       0.07045
   124    C   25  py     Val( 2p)     1.04377       0.03540
   125    C   25  pz     Val( 2p)     0.97040       0.05586
 
   126    C   26  S      Cor( 1S)     1.99992     -11.01510
   127    C   26  S      Val( 2S)     1.06547      -0.19583
   128    C   26  px     Val( 2p)     1.00976       0.06352
   129    C   26  py     Val( 2p)     0.99794       0.06480
   130    C   26  pz     Val( 2p)     0.94374       0.08640
 
   131    C   27  S      Cor( 1S)     1.99995     -10.98268
   132    C   27  S      Val( 2S)     1.08266      -0.18760
   133    C   27  px     Val( 2p)     0.98050       0.09611
   134    C   27  py     Val( 2p)     1.02450       0.08598
   135    C   27  pz     Val( 2p)     0.99834       0.09192
 
   136    C   28  S      Cor( 1S)     1.99990     -10.95672
   137    C   28  S      Val( 2S)     1.07867      -0.18429
   138    C   28  px     Val( 2p)     0.95593       0.11642
   139    C   28  py     Val( 2p)     0.96432       0.16312
   140    C   28  pz     Val( 2p)     0.98459       0.08732
 
   141    C   29  S      Cor( 1S)     1.99992     -10.94731
   142    C   29  S      Val( 2S)     1.07683      -0.17865
   143    C   29  px     Val( 2p)     0.99336       0.09209
   144    C   29  py     Val( 2p)     0.98401       0.14101
   145    C   29  pz     Val( 2p)     1.00974       0.07431
 
   146    C   30  S      Cor( 1S)     1.99994     -10.94788
   147    C   30  S      Val( 2S)     1.08389      -0.18251
   148    C   30  px     Val( 2p)     0.98383       0.10294
   149    C   30  py     Val( 2p)     0.98136       0.14333
   150    C   30  pz     Val( 2p)     0.98451       0.08721
 
   151    C   31  S      Cor( 1S)     1.99993     -10.94137
   152    C   31  S      Val( 2S)     1.07172      -0.17316
   153    C   31  px     Val( 2p)     1.01443       0.08954
   154    C   31  py     Val( 2p)     0.98094       0.14840
   155    C   31  pz     Val( 2p)     1.02054       0.07451
 
   156    C   32  S      Cor( 1S)     1.99985     -10.98985
   157    C   32  S      Val( 2S)     1.06041      -0.18640
   158    C   32  px     Val( 2p)     0.92143       0.10776
   159    C   32  py     Val( 2p)     0.97213       0.14978
   160    C   32  pz     Val( 2p)     0.92906       0.08487
 
   161    C   33  S      Cor( 1S)     1.99990     -10.95092
   162    C   33  S      Val( 2S)     1.08565      -0.19492
   163    C   33  px     Val( 2p)     0.99583       0.09823
   164    C   33  py     Val( 2p)     0.94722       0.14024
   165    C   33  pz     Val( 2p)     0.99381       0.09147
 
   166    N   34  S      Cor( 1S)     1.99998     -15.26813
   167    N   34  S      Val( 2S)     1.39803      -0.58871
   168    N   34  px     Val( 2p)     1.17456      -0.02122
   169    N   34  py     Val( 2p)     1.15177      -0.01471
   170    N   34  pz     Val( 2p)     1.54478      -0.16526
 
   171    C   35  S      Cor( 1S)     1.99996     -11.01413
   172    C   35  S      Val( 2S)     1.10339      -0.23732
   173    C   35  px     Val( 2p)     0.95284       0.09466
   174    C   35  py     Val( 2p)     0.95525       0.11033
   175    C   35  pz     Val( 2p)     0.97752       0.06453
 
   176    C   36  S      Cor( 1S)     1.99996     -11.05117
   177    C   36  S      Val( 2S)     1.11501      -0.25744
   178    C   36  px     Val( 2p)     0.93488       0.09671
   179    C   36  py     Val( 2p)     0.86981       0.11580
   180    C   36  pz     Val( 2p)     0.90105       0.09026
 
   181    C   37  S      Cor( 1S)     1.99991     -11.03394
   182    C   37  S      Val( 2S)     1.10891      -0.25055
   183    C   37  px     Val( 2p)     0.97802       0.06254
   184    C   37  py     Val( 2p)     0.86728       0.08522
   185    C   37  pz     Val( 2p)     0.97720       0.06886
 
   186    C   38  S      Cor( 1S)     1.99993     -10.97990
   187    C   38  S      Val( 2S)     1.10901      -0.21881
   188    C   38  px     Val( 2p)     1.01105       0.07834
   189    C   38  py     Val( 2p)     0.99071       0.08882
   190    C   38  pz     Val( 2p)     0.97377       0.08611
 
   191    C   39  S      Cor( 1S)     1.99996     -10.98064
   192    C   39  S      Val( 2S)     1.09108      -0.20245
   193    C   39  px     Val( 2p)     1.01850       0.08217
   194    C   39  py     Val( 2p)     0.97679       0.08476
   195    C   39  pz     Val( 2p)     0.98830       0.08999
 
   196    C   40  S      Cor( 1S)     1.99998     -11.01344
   197    C   40  S      Val( 2S)     1.09935      -0.22794
   198    C   40  px     Val( 2p)     0.93141       0.10790
   199    C   40  py     Val( 2p)     0.94982       0.10221
   200    C   40  pz     Val( 2p)     0.95960       0.09800
 
   201    N   41  S      Cor( 1S)     1.99999     -15.41844
   202    N   41  S      Val( 2S)     1.39135      -0.65747
   203    N   41  px     Val( 2p)     1.20419      -0.12605
   204    N   41  py     Val( 2p)     1.16177      -0.10204
   205    N   41  pz     Val( 2p)     1.20851      -0.11338
 
   206    C   42  S      Cor( 1S)     1.99992     -11.03852
   207    C   42  S      Val( 2S)     1.09120      -0.23525
   208    C   42  px     Val( 2p)     1.00643       0.05092
   209    C   42  py     Val( 2p)     0.95541       0.06216
   210    C   42  pz     Val( 2p)     0.89678       0.08276
 
   211    C   43  S      Cor( 1S)     1.99995     -10.99158
   212    C   43  S      Val( 2S)     1.08746      -0.20566
   213    C   43  px     Val( 2p)     0.95125       0.09512
   214    C   43  py     Val( 2p)     0.99822       0.07839
   215    C   43  pz     Val( 2p)     1.02644       0.07904
 
   216    C   44  S      Cor( 1S)     1.99994     -10.98777
   217    C   44  S      Val( 2S)     1.09190      -0.20632
   218    C   44  px     Val( 2p)     1.00612       0.08242
   219    C   44  py     Val( 2p)     0.97316       0.09086
   220    C   44  pz     Val( 2p)     0.99121       0.08491
 
   221    C   45  S      Cor( 1S)     1.99993     -10.98930
   222    C   45  S      Val( 2S)     1.09860      -0.21159
   223    C   45  px     Val( 2p)     0.98727       0.08426
   224    C   45  py     Val( 2p)     0.97678       0.07997
   225    C   45  pz     Val( 2p)     1.00129       0.08479
 
   226    C   46  S      Cor( 1S)     1.99993     -11.03379
   227    C   46  S      Val( 2S)     1.09488      -0.23509
   228    C   46  px     Val( 2p)     0.88116       0.08799
   229    C   46  py     Val( 2p)     0.99212       0.05050
   230    C   46  pz     Val( 2p)     0.98716       0.05710
 
   231    C   47  S      Cor( 1S)     1.99991     -10.97422
   232    C   47  S      Val( 2S)     1.10356      -0.20223
   233    C   47  px     Val( 2p)     0.99125       0.10025
   234    C   47  py     Val( 2p)     1.01420       0.09626
   235    C   47  pz     Val( 2p)     0.95213       0.10400
 
   236    C   48  S      Cor( 1S)     1.99994     -11.00322
[...]

 Contributions to Isotropic shielding for atom   94 (    32.2282 ppm):
                         Standard Origin              Atomic Origin
 NLMO      Total    Paramagnetic  Diamagnetic   Paramagnetic  Diamagnetic
   89      -0.3199        0.3180      -0.6379        -1.0522       0.7323
  102       1.6170        0.0614       1.5556         0.6482       0.9688
  103       0.3022        1.3570      -1.0548        -0.5767       0.8789
  104       0.0858        1.1709      -1.0851        -0.8612       0.9470
  105       0.5820        3.0175      -2.4355        -0.5260       1.1079
  106      26.3491       -0.1977      26.5468         0.5338      25.8153
  107       1.9243        3.6295      -1.7052         0.0779       1.8464
  108       0.0463       -0.2792       0.3255        -1.0840       1.1303
 Sum       30.5867        9.0773      21.5094        -2.8402      33.4268

 Contributions to Isotropic shielding for atom   95 (    31.0322 ppm):
                         Standard Origin              Atomic Origin
 NLMO      Total    Paramagnetic  Diamagnetic   Paramagnetic  Diamagnetic
   89      -0.5686        0.4047      -0.9733        -1.1344       0.5658
   99      -0.5898        0.4679      -1.0577        -1.4553       0.8654
  102       1.7895       -1.0329       2.8224         0.8888       0.9007
  103       0.0536        1.2666      -1.2130        -0.9291       0.9827
  105       0.7014        2.3566      -1.6551        -0.4753       1.1767
  106       1.6714        3.6647      -1.9933        -0.1647       1.8361
  107      25.7280       -0.1261      25.8542         0.5231      25.2049
  109       0.0963       -0.2223       0.3186        -0.9152       1.0115
  195       0.2288       -1.0687       1.2975         1.1622      -0.9334
 Sum       29.1108        5.7105      23.4003        -2.4998      31.6106

 Contributions to Isotropic shielding for atom   96 (    32.5552 ppm):
                         Standard Origin              Atomic Origin
 NLMO      Total    Paramagnetic  Diamagnetic   Paramagnetic  Diamagnetic
   90      -0.1380        1.1586      -1.2966        -0.8092       0.6713
   94      -0.2237        0.7499      -0.9736        -1.1772       0.9535
   97       1.8729       -1.0200       2.8930         0.9171       0.9558
  105       1.3404       -0.0227       1.3631         0.1954       1.1449
  106       0.0416        0.1138      -0.0722        -0.9831       1.0246
  108      26.5606        0.1762      26.3844         0.4910      26.0696
  109       1.4798        4.0481      -2.5683        -0.3642       1.8440
 Sum       30.9336        5.2038      25.7298        -1.7302      32.6638

 Contributions to Isotropic shielding for atom   97 (    32.0319 ppm):
                         Standard Origin              Atomic Origin
 NLMO      Total    Paramagnetic  Diamagnetic   Paramagnetic  Diamagnetic
   89      -0.4325        0.3697      -0.8022        -1.1510       0.7185
   94      -0.1926        1.4841      -1.6767        -0.7152       0.5226
   97       0.9544        1.7630      -0.8086        -0.0183       0.9727
   98      -0.3606        1.8086      -2.1693        -1.3547       0.9941
  105       0.6720        2.8569      -2.1849        -0.4117       1.0837
  106       0.3285        1.0673      -0.7388        -0.5311       0.8596
  107       0.0655        0.8543      -0.7887        -1.0503       1.1158
  108       1.8880        3.1680      -1.2800         0.1621       1.7259
  109      26.4617       -0.4086      26.8703         0.7276      25.7342
 Sum       29.3845       12.9633      16.4212        -4.3426      33.7271

 Contributions to Isotropic shielding for atom   98 (    32.7777 ppm):
                         Standard Origin              Atomic Origin
 NLMO      Total    Paramagnetic  Diamagnetic   Paramagnetic  Diamagnetic
   71      -0.0318       -1.1036       1.0717        -1.0524       1.0206
   80       0.3029       -0.9782       1.2811        -0.7879       1.0908
   81       0.2921       -0.8792       1.1713        -0.5149       0.8070
   85       1.0135        0.6183       0.3953         0.3912       0.6223
  110       1.3938       -0.9027       2.2965         0.5774       0.8164
  111      25.9582        0.5701      25.3881         0.4561      25.5021
  112       1.9037        0.6652       1.2385        -0.0095       1.9132
  193      -0.4471        0.6871      -1.1343         0.3676      -0.8148
 Sum       30.3852       -1.3229      31.7081        -0.5723      30.9575

 Contributions to Isotropic shielding for atom   99 (    30.6547 ppm):
                         Standard Origin              Atomic Origin
 NLMO      Total    Paramagnetic  Diamagnetic   Paramagnetic  Diamagnetic
   85       0.2537        2.0123      -1.7585        -0.5637       0.8174
   87       0.0557       -1.1534       1.2091        -0.7948       0.8505
   98       0.1201       -0.9145       1.0346        -0.5477       0.6678
  110       1.0333        0.7964       0.2369         0.3122       0.7211
  111       1.9896        0.0556       1.9339         0.0780       1.9116
  112      25.5274        0.0887      25.4386         0.5419      24.9855
  115       0.0607       -1.0233       1.0840        -0.5305       0.5912
  118       0.5425       -1.4939       2.0364        -0.2753       0.8178
  122       1.0645       -1.2197       2.2842         0.0333       1.0312
  123       0.3491       -1.2885       1.6377        -0.4344       0.7835
  124       0.1630       -1.1437       1.3067        -0.5405       0.7035
  125       0.0559       -1.5421       1.5980        -0.7607       0.8167
  193      -0.6700        1.4511      -2.1212         0.4349      -1.1050
  194      -0.8148       -1.2810       0.4661        -0.7877      -0.0271
  195      -0.1264        1.0362      -1.1625         0.9132      -1.0396
 Sum       29.6041       -5.6199      35.2240        -2.9220      32.5261

 Contributions to Isotropic shielding for atom  100 (    31.1941 ppm):
                         Standard Origin              Atomic Origin
 NLMO      Total    Paramagnetic  Diamagnetic   Paramagnetic  Diamagnetic
   71       0.1699       -0.7410       0.9109        -0.9784       1.1483
   84       0.1715       -0.9257       1.0972        -0.6438       0.8153
   89       0.9861       -0.6687       1.6548         0.0913       0.8948
   90      -0.0681       -1.0436       0.9755        -0.7881       0.7200
   99       0.5734       -0.5031       1.0765        -0.1165       0.6899
  100       0.3875        1.2439      -0.8563        -0.0669       0.4544
  103       0.1467       -0.9719       1.1186        -0.5852       0.7318
  104       0.0035       -1.4325       1.4361        -0.7986       0.8022
  110       1.0914       -0.6815       1.7729         0.2677       0.8237
  113      26.2003        0.6240      25.5763         0.6071      25.5932
  114       1.6881       -0.3325       2.0207        -0.1460       1.8342
 Sum       31.3505       -5.4327      36.7832        -3.1574      34.5079

 Contributions to Isotropic shielding for atom  101 (    30.8557 ppm):
                         Standard Origin              Atomic Origin
 NLMO      Total    Paramagnetic  Diamagnetic   Paramagnetic  Diamagnetic
  100      -0.0188        1.6926      -1.7114        -0.7843       0.7655
  101       0.1523       -1.1353       1.2875        -0.8646       1.0169
  103      -0.0543       -1.4291       1.3748        -0.8775       0.8232
  112       0.1521       -0.3554       0.5075        -0.8737       1.0259
  113       1.9642       -0.4200       2.3843         0.2690       1.6952
  114      25.7382        0.5917      25.1465         0.8213      24.9169
  195       0.0273        1.1186      -1.0914         0.8564      -0.8291
 Sum       27.9610        0.0631      27.8979        -1.4534      29.4144

 Contributions to Isotropic shielding for atom  102 (    30.0185 ppm):
                         Standard Origin              Atomic Origin
 NLMO      Total    Paramagnetic  Diamagnetic   Paramagnetic  Diamagnetic
   89      -0.6453        0.3879      -1.0333        -1.5355       0.8902
   98       1.5935       -0.7650       2.3585         0.7004       0.8931
  115       1.2644       -0.1869       1.4513         0.3783       0.8861
  116      25.2505        0.0756      25.1749         0.6108      24.6398
  117       1.0086        3.8213      -2.8126        -0.9090       1.9177
  118      -0.3913        0.3104      -0.7017        -1.5474       1.1561
  119       0.3263        1.2567      -0.9304        -0.1612       0.4875
  120      -0.1744       -0.6655       0.4911        -1.0619       0.8875
  121       0.3408       -0.6252       0.9659        -1.2303       1.5711
 Sum       28.5731        3.6093      24.9638        -4.7559      33.3290

 Contributions to Isotropic shielding for atom  103 (    31.6937 ppm):
                         Standard Origin              Atomic Origin
 NLMO      Total    Paramagnetic  Diamagnetic   Paramagnetic  Diamagnetic
   94      -0.3548        1.3907      -1.7455        -1.3155       0.9607
   97      -0.2290        1.5517      -1.7807        -0.8491       0.6201
   98       0.8754        1.9908      -1.1155        -0.1072       0.9826
  109      -0.0391       -1.1473       1.1082        -0.8327       0.7937
  115       0.6298        3.0929      -2.4631        -0.4639       1.0937
  116       1.8518        3.7369      -1.8851        -0.1863       2.0381
  117      26.9429       -0.8165      27.7594         0.8662      26.0767
  118      -0.3571        0.6706      -1.0277        -0.6827       0.3256
  119      -0.1652        0.6486      -0.8138        -1.2880       1.1229
  120      -0.3130       -0.2158      -0.0971        -1.0899       0.7769
  121       0.1149        0.1802      -0.0653        -1.0912       1.2061
 Sum       28.9566       11.0827      17.8739        -7.0405      35.9971

 Contributions to Isotropic shielding for atom  104 (    31.3620 ppm):
                         Standard Origin              Atomic Origin
 NLMO      Total    Paramagnetic  Diamagnetic   Paramagnetic  Diamagnetic
   81      -0.6405        1.2975      -1.9380        -1.3414       0.7009
   82      -0.1254        0.4022      -0.5276        -1.0973       0.9719
   86      -0.4779        1.7754      -2.2533        -1.6108       1.1329
   87       1.3356        1.4208      -0.0852         0.3377       0.9979
   93      -0.0699       -1.6380       1.5681        -0.8417       0.7718
  115       0.7444        4.5163      -3.7720        -0.4870       1.2313
  117      -0.0795       -0.6405       0.5609        -1.2292       1.1496
  118       0.4782        4.7174      -4.2392        -0.6957       1.1739
  119      26.2750       -1.0023      27.2773         0.5552      25.7198
  120      -0.5474        0.1542      -0.7016        -1.3695       0.8221
  121      -0.3259        0.9910      -1.3169        -1.3074       0.9815
  122      -0.1979       -0.6288       0.4309        -1.2667       1.0687
  127      -0.2267       -1.9786       1.7519        -0.6987       0.4720
  191       0.2741       -0.9768       1.2509         0.4324      -0.1582
 Sum       26.4163        8.4099      18.0064       -10.6199      37.0362

 Contributions to Isotropic shielding for atom  105 (    30.6961 ppm):
                         Standard Origin              Atomic Origin
 NLMO      Total    Paramagnetic  Diamagnetic   Paramagnetic  Diamagnetic
  121       0.2244       -0.1437       0.3680        -0.8155       1.0399
  123       1.7823       -2.3066       4.0889        -0.3118       2.0941
  124      25.9097        0.5938      25.3159         0.6159      25.2938
  125       1.7643       -1.0449       2.8092        -0.2309       1.9952
  126       0.9415        2.1412      -1.1997        -1.0392       1.9807
 Sum       30.6222       -0.7601      31.3823        -1.7815      32.4037

 Contributions to Isotropic shielding for atom  106 (    30.5453 ppm):
                         Standard Origin              Atomic Origin
 NLMO      Total    Paramagnetic  Diamagnetic   Paramagnetic  Diamagnetic
  121       0.4822       -0.8550       1.3372        -1.0896       1.5718
  122      -0.3093        0.6469      -0.9561        -1.1438       0.8345
  123       1.9131       -2.9141       4.8272         0.4945       1.4186
  124       1.8595       -0.7062       2.5657        -0.1739       2.0335
  125      25.9620        0.8690      25.0930         0.8162      25.1458
  126       1.1018        2.2100      -1.1082        -0.7666       1.8684
 Sum       31.0093       -0.7494      31.7587        -1.8632      32.8726

 Contributions to Isotropic shielding for atom  107 (    30.5940 ppm):
                         Standard Origin              Atomic Origin
 NLMO      Total    Paramagnetic  Diamagnetic   Paramagnetic  Diamagnetic
  120      -0.3575       -0.2517      -0.1059        -1.2961       0.9386
  121       0.1157        0.1412      -0.0255        -1.3937       1.5095
  122      -1.1912        0.8286      -2.0198        -1.9538       0.7626
  123       0.2824        2.9375      -2.6551        -1.2029       1.4853
  124       1.4706        2.4198      -0.9493        -0.5602       2.0307
  125       1.4433        1.5129      -0.0697        -0.4266       1.8699
  126      26.4194        0.4350      25.9844         1.1259      25.2935
  193       1.1902       -1.3408       2.5310         1.2540      -0.0639
 Sum       29.3728        6.6826      22.6901        -4.4534      33.8262

 Contributions to Isotropic shielding for atom  108 (    31.2916 ppm):
                         Standard Origin              Atomic Origin
 NLMO      Total    Paramagnetic  Diamagnetic   Paramagnetic  Diamagnetic
   76      -0.5265        0.0615      -0.5880        -1.3651       0.8386
   81      -0.6219        1.6547      -2.2766        -1.3617       0.7399
   82       1.2211       -0.7808       2.0020         0.0122       1.2089
   86      -0.2469        0.8338      -1.0807        -1.0191       0.7723
   87      -0.2156        0.9455      -1.1611        -1.1186       0.9030
  119      -0.2012       -1.4572       1.2560        -0.7166       0.5154
  127      26.0320        0.1472      25.8848         0.6005      25.4315
  128       1.7883        2.6061      -0.8178        -0.1994       1.9877
  129       1.1172        2.8082      -1.6910        -0.6956       1.8128
  190       1.3629        0.0947       1.2681         1.3498       0.0131
 Sum       29.7095        6.9138      22.7958        -4.5136      34.2232

 Contributions to Isotropic shielding for atom  109 (    30.6984 ppm):
                         Standard Origin              Atomic Origin
 NLMO      Total    Paramagnetic  Diamagnetic   Paramagnetic  Diamagnetic
   75      -0.5431        0.6168      -1.1598        -1.2557       0.7126
   76      -0.7924        0.1659      -0.9583        -2.1533       1.3609
   79      -0.3255        0.9825      -1.3080        -0.9639       0.6383
   82       1.9031       -1.9708       3.8739         0.6848       1.2183
  127       1.6205        2.6436      -1.0231        -0.3486       1.9692
  128      25.8929        0.3262      25.5666         0.5651      25.3278
  129       1.3809        2.0933      -0.7124        -0.4207       1.8016
 Sum       29.1364        4.8575      24.2789        -3.8924      33.0288

 Contributions to Isotropic shielding for atom  110 (    31.8904 ppm):
                         Standard Origin              Atomic Origin
 NLMO      Total    Paramagnetic  Diamagnetic   Paramagnetic  Diamagnetic
   75      -0.3446        0.8513      -1.1958        -0.9353       0.5908
   76      -1.1076        0.3732      -1.4807        -2.2694       1.1619
   79      -0.4476        1.2351      -1.6827        -1.0076       0.5600
   81      -0.4277        0.8196      -1.2472        -0.6814       0.2537
   82       1.5187       -1.4942       3.0129         0.7418       0.7769
   86      -0.1096        0.2424      -0.3519        -1.1787       1.0691
  127       1.7742        3.5206      -1.7464        -0.1275       1.9017
  128       1.8736        2.4206      -0.5469        -0.0261       1.8997
  129      26.7191        0.5092      26.2099         1.0036      25.7155
 Sum       29.4486        8.4776      20.9710        -4.4807      33.9293
 
 1\1\GINC-PCSN02\SP\RHF\STO-3G\C45H56N4O5\ABENIDD\30-May-2024\0\\# nmr=
 giao hf/sto-3g pop=nbo geom=connectivity\\Pleiokomenine_C_2\\0,1\C,0,0
 .,0.,0.\C,0,1.4012,0.,0.\C,0,2.087,1.2318,0.\C,0,1.3944,2.4518,-0.0205
 \C,0,0.011,2.4392,-0.0741\C,0,-0.6693,1.2115,-0.0532\N,0,-0.8786,3.542
 5,-0.1782\C,0,-2.154,1.4708,-0.0595\C,0,-2.108,2.9049,-0.7192\C,0,-3.0
 911,0.5691,-0.879\C,0,-1.9554,2.7429,-2.2961\C,0,-3.1539,2.001,-2.9\C,
 0,-4.0347,1.4594,-1.7576\N,0,-3.747,-0.289,0.1127\C,0,-4.9385,-0.981,-
 0.3613\C,0,-5.91,-0.1278,-1.1753\C,0,-5.1915,0.6106,-2.3036\C,0,-2.631
 1,1.3025,1.4019\C,0,-3.9171,0.4886,1.3332\C,0,-4.5789,2.7277,-1.0151\C
 ,0,-3.433,3.667,-0.545\C,0,-3.7071,4.2674,0.8224\O,0,-4.5415,3.8532,1.
 6178\O,0,-2.9502,5.383,1.0195\C,0,-3.1256,5.9911,2.2988\C,0,-0.3428,4.
 7626,-0.7624\C,0,2.1597,-1.31,-0.0355\C,0,2.0761,-1.9958,-1.3844\C,0,0
 .9549,-2.775,-1.7041\C,0,3.073,-1.7792,-2.3604\C,0,2.9718,-2.334,-3.64
 42\C,0,1.8589,-3.0919,-3.9557\C,0,0.8477,-3.2805,-2.9883\N,0,1.5534,-3
 .7595,-5.1735\C,0,-0.3162,-3.9648,-3.6694\C,0,0.533,-4.7435,-4.7316\C,
 0,-1.2055,-4.9728,-2.9644\C,0,1.3174,-5.9496,-3.9983\C,0,0.3713,-6.838
 9,-3.1856\C,0,-1.0803,-6.4175,-3.4696\N,0,-2.627,-4.4615,-3.1318\C,0,-
 3.4859,-5.1631,-2.1341\C,0,-3.4848,-6.6684,-2.4719\C,0,-2.079,-7.285,-
 2.6639\C,0,-1.2818,-2.7864,-3.9933\C,0,-2.4448,-2.9953,-3.0053\C,0,-1.
 2315,-6.5251,-5.0266\C,0,-0.3207,-5.4897,-5.7832\C,0,-1.1032,-4.7109,-
 6.8288\O,0,-2.0065,-5.2017,-7.4993\O,0,-0.5834,-3.4779,-7.0592\C,0,-1.
 2653,-2.7305,-8.065\C,0,2.6537,-4.1388,-6.0395\O,0,-3.1822,-4.66,-4.36
 93\H,0,-0.5661,-0.9245,0.0365\H,0,3.1748,1.2488,0.0074\H,0,1.95,3.3824
 ,-0.0182\H,0,-2.5154,-0.0912,-1.5418\H,0,-1.036,2.207,-2.563\H,0,-1.86
 82,3.7252,-2.7779\H,0,-3.7277,2.6782,-3.5451\H,0,-2.7967,1.1899,-3.546
 9\H,0,-4.6062,-1.814,-0.9938\H,0,-5.4679,-1.4488,0.4777\H,0,-6.6846,-0
 .774,-1.6047\H,0,-6.4278,0.5815,-0.5207\H,0,-4.8073,-0.1272,-3.02\H,0,
 -5.9072,1.2348,-2.8518\H,0,-1.91,0.7168,1.9906\H,0,-2.7475,2.2364,1.94
 99\H,0,-4.0109,-0.1631,2.2085\H,0,-4.7968,1.1342,1.3133\H,0,-5.245,2.4
 519,-0.1974\H,0,-5.2184,3.2978,-1.7044\H,0,-3.4439,4.533,-1.2247\H,0,-
 4.1482,6.3658,2.4061\H,0,-2.8847,5.2834,3.0983\H,0,-2.4371,6.8378,2.36
 83\H,0,0.1584,4.5763,-1.719\H,0,0.3721,5.2314,-0.0777\H,0,-1.1401,5.49
 09,-0.9392\H,0,3.2122,-1.1482,0.2308\H,0,1.7671,-1.9769,0.7435\H,0,0.1
 62,-2.9244,-0.98\H,0,3.9333,-1.1552,-2.1268\H,0,3.7503,-2.1477,-4.3747
 \H,0,-1.0112,-4.9332,-1.8822\H,0,2.1207,-5.6012,-3.3376\H,0,1.83,-6.56
 3,-4.7522\H,0,0.5367,-7.893,-3.44\H,0,0.6033,-6.74,-2.1174\H,0,-4.4892
 ,-4.7318,-2.2149\H,0,-3.0784,-4.9596,-1.1385\H,0,-4.0163,-7.2151,-1.68
 45\H,0,-4.057,-6.8308,-3.3939\H,0,-1.667,-7.4528,-1.6594\H,0,-2.1751,-
 8.2771,-3.1215\H,0,-0.8602,-1.7818,-3.8712\H,0,-1.6644,-2.8404,-5.0126
 \H,0,-2.183,-2.7725,-1.9663\H,0,-3.3694,-2.4901,-3.2987\H,0,-2.2757,-6
 .4741,-5.3433\H,0,-0.9188,-7.5338,-5.3347\H,0,0.3693,-6.075,-6.4107\H,
 0,-0.8089,-1.7381,-8.1163\H,0,-2.3226,-2.6105,-7.8082\H,0,-1.154,-3.21
 38,-9.0405\H,0,2.2844,-4.7044,-6.9007\H,0,3.1556,-3.2501,-6.4367\H,0,3
 .3941,-4.755,-5.5182\\Version=ES64L-G16RevB.01\State=1-A\HF=-2300.1982
 907\RMSD=3.883e-09\Dipole=0.77142,0.6591033,0.7915409\Quadrupole=-0.79
 77231,12.1234311,-11.325708,-9.5553205,-8.8676109,-11.1199134\PG=C01 [
 X(C45H56N4O5)]\\@


 I am not a vegetarian because I love animals;
 I am a vegetarian because I hate plants.
                               -- A. Whitney Brown
 Job cpu time:       0 days  0 hours 12 minutes 13.7 seconds.
 Elapsed time:       0 days  0 hours  2 minutes  3.0 seconds.
 File lengths (MBytes):  RWF=     67 Int=      0 D2E=      0 Chk=     10 Scr=      1
 Normal termination of Gaussian 16 at Thu May 30 09:35:38 2024.
