 Entering Gaussian System, Link 0=g16
 Input=2_pleiokomenine_2a_c_20.gjf
 Output=2_pleiokomenine_2a_c_20.log
 Initial command:
 /opt/gaussian/g16/l1.exe "/data/abenidd/Elvis/pleiokomenine_C/NMR_HF/2a/2_pleiokomenine_2a_c_20/Gau-27866.inp" -scrdir="/data/abenidd/Elvis/pleiokomenine_C/NMR_HF/2a/2_pleiokomenine_2a_c_20/"
 Entering Link 1 = /opt/gaussian/g16/l1.exe PID=     27868.
  
 Copyright (c) 1988-2017, Gaussian, Inc.  All Rights Reserved.
  
 This is part of the Gaussian(R) 16 program.  It is based on
 the Gaussian(R) 09 system (copyright 2009, Gaussian, Inc.),
 the Gaussian(R) 03 system (copyright 2003, Gaussian, Inc.),
 the Gaussian(R) 98 system (copyright 1998, Gaussian, Inc.),
 the Gaussian(R) 94 system (copyright 1995, Gaussian, Inc.),
 the Gaussian 92(TM) system (copyright 1992, Gaussian, Inc.),
 the Gaussian 90(TM) system (copyright 1990, Gaussian, Inc.),
 the Gaussian 88(TM) system (copyright 1988, Gaussian, Inc.),
 the Gaussian 86(TM) system (copyright 1986, Carnegie Mellon
 University), and the Gaussian 82(TM) system (copyright 1983,
 Carnegie Mellon University). Gaussian is a federally registered
 trademark of Gaussian, Inc.
  
 This software contains proprietary and confidential information,
 including trade secrets, belonging to Gaussian, Inc.
  
 This software is provided under written license and may be
 used, copied, transmitted, or stored only in accord with that
 written license.
  
 The following legend is applicable only to US Government
 contracts under FAR:
  
                    RESTRICTED RIGHTS LEGEND
  
 Use, reproduction and disclosure by the US Government is
 subject to restrictions as set forth in subparagraphs (a)
 and (c) of the Commercial Computer Software - Restricted
 Rights clause in FAR 52.227-19.
  
 Gaussian, Inc.
 340 Quinnipiac St., Bldg. 40, Wallingford CT 06492
  
  
 ---------------------------------------------------------------
 Warning -- This program may not be used in any manner that
 competes with the business of Gaussian, Inc. or will provide
 assistance to any competitor of Gaussian, Inc.  The licensee
 of this program is prohibited from giving any competitor of
 Gaussian, Inc. access to this program.  By using this program,
 the user acknowledges that Gaussian, Inc. is engaged in the
 business of creating and licensing software in the field of
 computational chemistry and represents and warrants to the
 licensee that it is not a competitor of Gaussian, Inc. and that
 it will not use this program in any manner prohibited above.
 ---------------------------------------------------------------
  

 Cite this work as:
 Gaussian 16, Revision B.01,
 M. J. Frisch, G. W. Trucks, H. B. Schlegel, G. E. Scuseria, 
 M. A. Robb, J. R. Cheeseman, G. Scalmani, V. Barone, 
 G. A. Petersson, H. Nakatsuji, X. Li, M. Caricato, A. V. Marenich, 
 J. Bloino, B. G. Janesko, R. Gomperts, B. Mennucci, H. P. Hratchian, 
 J. V. Ortiz, A. F. Izmaylov, J. L. Sonnenberg, D. Williams-Young, 
 F. Ding, F. Lipparini, F. Egidi, J. Goings, B. Peng, A. Petrone, 
 T. Henderson, D. Ranasinghe, V. G. Zakrzewski, J. Gao, N. Rega, 
 G. Zheng, W. Liang, M. Hada, M. Ehara, K. Toyota, R. Fukuda, 
 J. Hasegawa, M. Ishida, T. Nakajima, Y. Honda, O. Kitao, H. Nakai, 
 T. Vreven, K. Throssell, J. A. Montgomery, Jr., J. E. Peralta, 
 F. Ogliaro, M. J. Bearpark, J. J. Heyd, E. N. Brothers, K. N. Kudin, 
 V. N. Staroverov, T. A. Keith, R. Kobayashi, J. Normand, 
 K. Raghavachari, A. P. Rendell, J. C. Burant, S. S. Iyengar, 
 J. Tomasi, M. Cossi, J. M. Millam, M. Klene, C. Adamo, R. Cammi, 
 J. W. Ochterski, R. L. Martin, K. Morokuma, O. Farkas, 
 J. B. Foresman, and D. J. Fox, Gaussian, Inc., Wallingford CT, 2016.
 
 ******************************************
 Gaussian 16:  ES64L-G16RevB.01 20-Dec-2017
                30-May-2024 
 ******************************************
 %nprocshared=8
 Will use up to    8 processors via shared memory.
 ----------------------------------------------
 # nmr=giao hf/sto-3g pop=nbo geom=connectivity
 ----------------------------------------------
 1/38=1,57=2,172=1/1;
 2/12=2,17=6,18=5,40=1/2;
 3/6=3,11=9,25=1,30=1/1,2,3,8;
 4//1;
 5/5=2,38=5/2;
 8/6=1,10=90,11=11/1;
 10/13=100,45=16/2;
 6/7=2,8=2,9=2,10=2,28=1,40=1,64=1/1,7;
 99/9=1/99;
 -----------------
 Pleiokomenine_C_2
 -----------------
 Symbolic Z-matrix:
 Charge =  0 Multiplicity = 1
 C                     0.        0.        0. 
 C                     1.4024    0.        0. 
 C                     2.0893    1.2323    0. 
 C                     1.3998    2.4522   -0.0474 
 C                     0.0173    2.4401   -0.1079 
 C                    -0.6668    1.2137   -0.068 
 N                    -0.8673    3.5445   -0.2256 
 C                    -2.1507    1.4829   -0.0565 
 C                    -2.1064    2.9063   -0.7391 
 C                    -3.1077    0.5771   -0.8454 
 C                    -1.9735    2.7187   -2.3149 
 C                    -3.1829    1.9741   -2.8917 
 C                    -4.0539    1.4579   -1.7309 
 N                    -3.7649   -0.245     0.1714 
 C                    -4.9588   -0.9471   -0.2757 
 C                    -5.9339   -0.1068   -1.0995 
 C                    -5.2219    0.6062   -2.2488 
 C                    -2.6083    1.3462    1.4153 
 C                    -3.9076    0.5514    1.3806 
 C                    -4.582     2.7423   -1.0051 
 C                    -3.4246    3.6797   -0.5602 
 C                    -3.6794    4.3011    0.8017 
 O                    -4.5129    3.9089    1.6088 
 O                    -2.9064    5.4092    0.978 
 C                    -3.0628    6.0352    2.2513 
 C                    -0.334     4.7573   -0.8255 
 C                     2.1785   -1.3033    0.0422 
 C                     1.6692   -2.3704   -0.9086 
 C                     1.4396   -2.0688   -2.2597 
 C                     1.4292   -3.68     -0.4382 
 C                     0.9114   -4.6749   -1.2778 
 C                     0.6202   -4.3509   -2.5892 
 C                     0.9092   -3.0552   -3.0738 
 N                    -0.0132   -5.1542   -3.579 
 C                     0.5831   -3.0332   -4.5504 
 C                    -0.5492   -4.1168   -4.4961 
 C                     0.0067   -1.8102   -5.2429 
 C                    -1.8589   -3.482    -3.787 
 C                    -2.2837   -2.1646   -4.4412 
 C                    -1.449    -1.9487   -5.7139 
 N                     0.929    -1.5265   -6.4159 
 C                     0.666    -0.133    -6.8796 
 C                    -0.7858   -0.0612   -7.3955 
 C                    -1.8431   -0.6277   -6.4195 
 C                     1.9667   -3.2271   -5.2328 
 C                     2.2605   -1.8447   -5.8452 
 C                    -1.6829   -3.2393   -6.5733 
 C                    -1.0909   -4.5241   -5.8859 
 C                    -0.225    -5.3274   -6.8432 
 O                    -0.4697   -5.4404   -8.0406 
 O                     0.7367   -6.0411   -6.2034 
 C                     1.5451   -6.8422   -7.0638 
 C                    -0.8303   -6.2681   -3.1341 
 O                     0.7795   -2.3576   -7.4949 
 H                    -0.5637   -0.9284    0.0512 
 H                     3.1768    1.2489    0.0358 
 H                     1.9561    3.3825   -0.0452 
 H                    -2.5483   -0.1056   -1.4993 
 H                    -1.0602    2.1735   -2.5845 
 H                    -1.8866    3.693    -2.8129 
 H                    -3.7596    2.6429   -3.5431 
 H                    -2.838     1.1498   -3.527 
 H                    -4.6321   -1.793    -0.8947 
 H                    -5.4823   -1.3959    0.5773 
 H                    -6.7148   -0.7583   -1.5092 
 H                    -6.4431    0.6181   -0.4551 
 H                    -4.8491   -0.1475   -2.9549 
 H                    -5.9392    1.2244   -2.8016 
 H                    -1.8866    0.759     2.0019 
 H                    -2.7017    2.2912    1.949 
 H                    -3.9969   -0.0847    2.2677 
 H                    -4.7784    1.2087    1.3629 
 H                    -5.2438    2.4855   -0.1777 
 H                    -5.2227    3.306    -1.6985 
 H                    -3.4372    4.5365   -1.2515 
 H                    -4.0793    6.4251    2.3623 
 H                    -2.8248    5.334     3.0574 
 H                    -2.3624    6.8732    2.3047 
 H                     0.1614    4.559    -1.7827 
 H                     0.3855    5.233    -0.1505 
 H                    -1.1312    5.4846   -1.0067 
 H                     3.2333   -1.1243   -0.2022 
 H                     2.1515   -1.6691    1.0764 
 H                     1.6552   -1.0782   -2.6464 
 H                     1.6279   -3.9292    0.6026 
 H                     0.7197   -5.6662   -0.8841 
 H                     0.1067   -0.937    -4.5809 
 H                    -1.7282   -3.3084   -2.7119 
 H                    -2.6892   -4.1992   -3.8483 
 H                    -3.3571   -2.1854   -4.6659 
 H                    -2.1333   -1.3398   -3.7332 
 H                     1.3876    0.0822   -7.6746 
 H                     0.84      0.5403   -6.0339 
 H                    -1.0329    0.9798   -7.6338 
 H                    -0.8608   -0.6155   -8.3394 
 H                    -2.012     0.1422   -5.6548 
 H                    -2.7982   -0.7478   -6.9448 
 H                     2.7834   -3.5253   -4.5652 
 H                     1.9292   -3.97     -6.0295 
 H                     2.5035   -1.0797   -5.101 
 H                     3.0015   -1.8658   -6.6494 
 H                    -1.3363   -3.1173   -7.6021 
 H                    -2.7672   -3.388    -6.6839 
 H                    -1.9357   -5.2107   -5.7205 
 H                     2.3227   -7.3126   -6.4557 
 H                     2.0304   -6.2239   -7.8257 
 H                     0.9437   -7.6303   -7.5272 
 H                    -1.3115   -6.7535   -3.9888 
 H                    -0.2112   -7.0287   -2.6464 
 H                    -1.6128   -5.953    -2.4354 
 
 Stoichiometry    C45H56N4O5
 Framework group  C1[X(C45H56N4O5)]
 Deg. of freedom   324
 Full point group                 C1      NOp   1
 Largest Abelian subgroup         C1      NOp   1
 Largest concise Abelian subgroup C1      NOp   1
                         Standard orientation:                         
 ---------------------------------------------------------------------
 Center     Atomic      Atomic             Coordinates (Angstroms)
 Number     Number       Type             X           Y           Z
 ---------------------------------------------------------------------
      1          6           0        1.718307    2.310474   -0.391494
      2          6           0        1.279817    3.426804    0.335321
      3          6           0        1.967612    3.794451    1.510977
      4          6           0        3.048019    3.040416    1.990527
      5          6           0        3.434834    1.906139    1.298500
      6          6           0        2.774616    1.563307    0.106769
      7          7           0        4.449129    0.972286    1.637902
      8          6           0        3.442713    0.349726   -0.489409
      9          6           0        4.058558   -0.222995    0.847265
     10          6           0        2.601378   -0.743915   -1.163790
     11          6           0        2.926551   -1.015817    1.638463
     12          6           0        2.410480   -2.209183    0.826475
     13          6           0        3.006794   -2.145429   -0.592293
     14          7           0        2.819702   -0.550115   -2.597812
     15          6           0        2.408356   -1.661113   -3.443221
     16          6           0        2.830462   -3.043492   -2.946808
     17          6           0        2.434959   -3.255663   -1.485725
     18          6           0        4.375820    0.870118   -1.608688
     19          6           0        4.178954   -0.068994   -2.792074
     20          6           0        4.551612   -2.326059   -0.401843
     21          6           0        5.145380   -1.279612    0.582341
     22          6           0        6.503861   -0.772564    0.131493
     23          8           0        6.965352   -0.904807   -0.995224
     24          8           0        7.180395   -0.214739    1.174387
     25          6           0        8.457893    0.317910    0.825225
     26          6           0        4.807846    0.868021    3.043471
     27          6           0        0.108104    4.258841   -0.152025
     28          6           0       -1.089272    3.449897   -0.614634
     29          6           0       -1.613734    2.429432    0.193291
     30          6           0       -1.688917    3.725615   -1.862966
     31          6           0       -2.763501    2.964746   -2.341735
     32          6           0       -3.228285    1.915317   -1.572178
     33          6           0       -2.662730    1.672281   -0.300062
     34          7           0       -4.217232    0.946325   -1.902673
     35          6           0       -3.437708    0.541906    0.339340
     36          6           0       -3.844487   -0.169996   -0.997435
     37          6           0       -2.780554   -0.501587    1.226353
     38          6           0       -2.541171   -0.888173   -1.635162
     39          6           0       -1.839112   -1.802209   -0.627379
     40          6           0       -2.711702   -1.916953    0.632987
     41          7           0       -3.570576   -0.497876    2.523621
     42          6           0       -2.748155   -1.182248    3.563470
     43          6           0       -2.553649   -2.651462    3.136142
     44          6           0       -2.047693   -2.837276    1.686707
     45          6           0       -4.425056    1.270504    1.294277
     46          6           0       -3.874795    0.943595    2.695250
     47          6           0       -4.103607   -2.420483    0.115314
     48          6           0       -4.813987   -1.358585   -0.801979
     49          6           0       -6.252067   -1.115018   -0.372910
     50          8           0       -6.982513   -1.996925    0.068795
     51          8           0       -6.688542    0.130179   -0.693146
     52          6           0       -8.048425    0.384590   -0.344505
     53          6           0       -4.508521    0.719233   -3.306219
     54          8           0       -4.785136   -1.130047    2.473374
     55          1           0        1.245541    2.026803   -1.328686
     56          1           0        1.661393    4.678737    2.066387
     57          1           0        3.556786    3.349297    2.896441
     58          1           0        1.530960   -0.583591   -0.976451
     59          1           0        2.078614   -0.367971    1.894086
     60          1           0        3.311790   -1.380880    2.599262
     61          1           0        2.686675   -3.148204    1.322614
     62          1           0        1.314668   -2.188091    0.798462
     63          1           0        1.312273   -1.641792   -3.503795
     64          1           0        2.759224   -1.511394   -4.471597
     65          1           0        2.349663   -3.811118   -3.564623
     66          1           0        3.910346   -3.175573   -3.074954
     67          1           0        1.339313   -3.264225   -1.414259
     68          1           0        2.777688   -4.241315   -1.149115
     69          1           0        4.074862    1.874625   -1.940568
     70          1           0        5.419950    0.971982   -1.315431
     71          1           0        4.277501    0.473617   -3.738333
     72          1           0        4.921947   -0.868112   -2.796664
     73          1           0        5.070865   -2.329381   -1.360426
     74          1           0        4.745438   -3.325424    0.013798
     75          1           0        5.358761   -1.820374    1.517330
     76          1           0        9.128430   -0.482697    0.498079
     77          1           0        8.357432    1.082927    0.048837
     78          1           0        8.884968    0.784997    1.716905
     79          1           0        3.928790    0.728776    3.682882
     80          1           0        5.339537    1.768207    3.369913
     81          1           0        5.480211    0.021247    3.211478
     82          1           0       -0.238411    4.928855    0.645085
     83          1           0        0.474113    4.898182   -0.965283
     84          1           0       -1.189482    2.229842    1.171801
     85          1           0       -1.304086    4.531544   -2.485244
     86          1           0       -3.191505    3.187576   -3.312087
     87          1           0       -1.771886   -0.159952    1.503115
     88          1           0       -1.804662   -0.177680   -2.029896
     89          1           0       -2.843930   -1.480864   -2.509568
     90          1           0       -1.654625   -2.785652   -1.076728
     91          1           0       -0.853831   -1.386392   -0.381418
     92          1           0       -3.296980   -1.106241    4.507957
     93          1           0       -1.797934   -0.644715    3.646868
     94          1           0       -1.858057   -3.139500    3.828599
     95          1           0       -3.507058   -3.185188    3.235993
     96          1           0       -0.968494   -2.634330    1.700188
     97          1           0       -2.154728   -3.888737    1.394213
     98          1           0       -4.495057    2.356214    1.160316
     99          1           0       -5.439298    0.880535    1.208987
    100          1           0       -2.940372    1.463085    2.929966
    101          1           0       -4.608322    1.063990    3.497564
    102          1           0       -4.744845   -2.766804    0.929144
    103          1           0       -3.940380   -3.326969   -0.486093
    104          1           0       -4.952692   -1.834065   -1.785413
    105          1           0       -8.268311    1.429248   -0.581283
    106          1           0       -8.208106    0.233351    0.727844
    107          1           0       -8.717877   -0.251846   -0.931282
    108          1           0       -5.230510   -0.095439   -3.419009
    109          1           0       -4.964216    1.609165   -3.753444
    110          1           0       -3.610491    0.461077   -3.877773
 ---------------------------------------------------------------------
 Rotational constants (GHZ):           0.1018471           0.0333083           0.0321418
 Standard basis: STO-3G (5D, 7F)
 There are   326 symmetry adapted cartesian basis functions of A   symmetry.
 There are   326 symmetry adapted basis functions of A   symmetry.
   326 basis functions,   978 primitive gaussians,   326 cartesian basis functions
   197 alpha electrons      197 beta electrons
       nuclear repulsion energy      8240.7627105619 Hartrees.
 NAtoms=  110 NActive=  110 NUniq=  110 SFac= 1.00D+00 NAtFMM=   60 NAOKFM=T Big=T
 Integral buffers will be    131072 words long.
 Raffenetti 1 integral format.
 Two-electron integral symmetry is turned on.
 One-electron integrals computed using PRISM.
 NBasis=   326 RedAO= T EigKep=  1.73D-01  NBF=   326
 NBsUse=   326 1.00D-06 EigRej= -1.00D+00 NBFU=   326
 ExpMin= 1.69D-01 ExpMax= 1.31D+02 ExpMxC= 1.31D+02 IAcc=3 IRadAn=         5 AccDes= 0.00D+00
 Harris functional with IExCor=  205 and IRadAn=       5 diagonalized for initial guess.
 HarFok:  IExCor=  205 AccDes= 0.00D+00 IRadAn=         5 IDoV= 1 UseB2=F ITyADJ=14
 ICtDFT=  3500011 ScaDFX=  1.000000  1.000000  1.000000  1.000000
 FoFCou: FMM=F IPFlag=           0 FMFlag=      100000 FMFlg1=        2001
         NFxFlg=           0 DoJE=T BraDBF=F KetDBF=T FulRan=T
         wScrn=  0.000000 ICntrl=       500 IOpCl=  0 I1Cent=   200000004 NGrid=           0
         NMat0=    1 NMatS0=      1 NMatT0=    0 NMatD0=    1 NMtDS0=    0 NMtDT0=    0
 Petite list used in FoFCou.
 Requested convergence on RMS density matrix=1.00D-08 within 128 cycles.
 Requested convergence on MAX density matrix=1.00D-06.
 Requested convergence on             energy=1.00D-06.
 No special actions if energy rises.
 Integral accuracy reduced to 1.0D-05 until final iterations.
 Initial convergence to 1.0D-05 achieved.  Increase integral accuracy.
 SCF Done:  E(RHF) =  -2300.19728552     A.U. after   16 cycles
            NFock= 16  Conv=0.39D-08     -V/T= 2.0093
 Range of M.O.s used for correlation:     1   326
 NBasis=   326 NAE=   197 NBE=   197 NFC=     0 NFV=     0
 NROrb=    326 NOA=   197 NOB=   197 NVA=   129 NVB=   129
          Differentiating once with respect to magnetic field using GIAOs.
          Electric field/nuclear overlap derivatives assumed to be zero.
 FoFCou: FMM=F IPFlag=           0 FMFlag=      100000 FMFlg1=        2001
         NFxFlg=           0 DoJE=F BraDBF=F KetDBF=T FulRan=T
         wScrn=  0.000000 ICntrl=      6100 IOpCl=  0 I1Cent=           7 NGrid=         110
         NMat0=    1 NMatS0=      1 NMatT0=    0 NMatD0=    1 NMtDS0=    0 NMtDT0=    0
 Symmetry not used in FoFCou.
 FoFJK:  IHMeth= 1 ICntrl=    6127 DoSepK=F KAlg= 0 I1Cent=           0 FoldK=F
 IRaf=         1 NMat=       1 IRICut=       1 DoRegI=T DoRafI=F ISym2E= 0 IDoP0=0 IntGTp=1.
          There are     3 degrees of freedom in the 1st order CPHF.  IDoFFX=0 NUNeed=     3.
      3 vectors produced by pass  0 Test12= 8.47D-13 3.33D-08 XBig12= 1.53D+02 2.44D+00.
 AX will form     3 AO Fock derivatives at one time.
      3 vectors produced by pass  1 Test12= 8.47D-13 3.33D-08 XBig12= 6.82D-01 3.08D-01.
      3 vectors produced by pass  2 Test12= 8.47D-13 3.33D-08 XBig12= 1.70D-02 3.15D-02.
      3 vectors produced by pass  3 Test12= 8.47D-13 3.33D-08 XBig12= 4.17D-04 7.33D-03.
      3 vectors produced by pass  4 Test12= 8.47D-13 3.33D-08 XBig12= 1.72D-05 8.81D-04.
      3 vectors produced by pass  5 Test12= 8.47D-13 3.33D-08 XBig12= 2.72D-07 7.40D-05.
      3 vectors produced by pass  6 Test12= 8.47D-13 3.33D-08 XBig12= 1.02D-08 2.25D-05.
      3 vectors produced by pass  7 Test12= 8.47D-13 3.33D-08 XBig12= 2.78D-10 5.15D-06.
      3 vectors produced by pass  8 Test12= 8.47D-13 3.33D-08 XBig12= 7.19D-12 5.00D-07.
      2 vectors produced by pass  9 Test12= 8.47D-13 3.33D-08 XBig12= 1.44D-13 1.11D-07.
 InvSVY:  IOpt=1 It=  1 EMax= 1.24D-14
 Solved reduced A of dimension    29 with     3 vectors.
 Calculating GIAO nuclear magnetic shielding tensors.
 SCF GIAO Magnetic shielding tensor (ppm):
      1  C    Isotropic =   124.0257   Anisotropy =   155.4820
   XX=   149.1925   YX=    33.8991   ZX=   -61.8701
   XY=    32.6200   YY=   143.9218   ZY=   -52.8300
   XZ=   -70.6157   YZ=   -51.8457   ZZ=    78.9628
   Eigenvalues:    30.9031   113.4936   227.6804
      2  C    Isotropic =   118.1720   Anisotropy =   162.2450
   XX=   117.3567   YX=    72.3385   ZX=   -47.9774
   XY=    75.1016   YY=   119.6966   ZY=   -31.5052
   XZ=   -61.0906   YZ=   -30.8240   ZZ=   117.4627
   Eigenvalues:    39.4509    88.7299   226.3353
      3  C    Isotropic =   118.9117   Anisotropy =   151.7866
   XX=   148.6370   YX=    57.7348   ZX=   -23.5205
   XY=    63.0931   YY=    88.3655   ZY=   -64.1077
   XZ=   -26.1085   YZ=   -66.0013   ZZ=   119.7326
   Eigenvalues:    26.7633   109.8690   220.1028
      4  C    Isotropic =   133.9321   Anisotropy =   143.1252
   XX=   150.4075   YX=    29.6515   ZX=   -62.9259
   XY=    31.7048   YY=   150.0407   ZY=   -44.7271
   XZ=   -60.2574   YZ=   -54.1971   ZZ=   101.3479
   Eigenvalues:    52.3234   120.1239   229.3489
      5  C    Isotropic =   109.1489   Anisotropy =   128.1208
   XX=   106.9476   YX=    65.1209   ZX=   -44.3885
   XY=    51.4625   YY=   113.3425   ZY=   -19.1926
   XZ=   -51.8881   YZ=   -18.4766   ZZ=   107.1568
   Eigenvalues:    41.7132    91.1708   194.5628
      6  C    Isotropic =   117.6176   Anisotropy =   141.2878
   XX=   134.4589   YX=    47.9543   ZX=   -41.1875
   XY=    48.2054   YY=   103.4271   ZY=   -56.8877
   XZ=   -30.6631   YZ=   -57.0962   ZZ=   114.9668
   Eigenvalues:    49.4902    91.5531   211.8094
      7  N    Isotropic =   274.1692   Anisotropy =    81.9782
   XX=   268.6448   YX=   -28.9418   ZX=    17.0840
   XY=   -30.3638   YY=   311.1862   ZY=   -18.5718
   XZ=     1.6298   YZ=    -4.2097   ZZ=   242.6766
   Eigenvalues:   239.5819   254.1043   328.8213
      8  C    Isotropic =   196.0451   Anisotropy =    13.0565
   XX=   199.5892   YX=     2.2297   ZX=    -0.4569
   XY=     4.8901   YY=   187.7161   ZY=     2.2447
   XZ=     6.0119   YZ=     5.8128   ZZ=   200.8300
   Eigenvalues:   186.0177   197.3682   204.7494
      9  C    Isotropic =   181.1444   Anisotropy =    44.1311
   XX=   170.2706   YX=     9.4314   ZX=    17.7768
   XY=    -7.4259   YY=   190.8090   ZY=    21.8722
   XZ=    19.8121   YZ=    16.3677   ZZ=   182.3538
   Eigenvalues:   153.1232   179.7450   210.5651
     10  C    Isotropic =   190.4011   Anisotropy =    28.0678
   XX=   178.4517   YX=     4.2338   ZX=    -2.5800
   XY=     4.6254   YY=   184.7472   ZY=     1.7907
   XZ=    -7.8888   YZ=     4.2393   ZZ=   208.0043
   Eigenvalues:   175.0599   187.0304   209.1129
     11  C    Isotropic =   213.8219   Anisotropy =    19.9801
   XX=   217.1231   YX=     7.5613   ZX=    -9.5033
   XY=    10.6317   YY=   212.5972   ZY=    -2.6483
   XZ=    -3.4362   YZ=    -2.3985   ZZ=   211.7455
   Eigenvalues:   204.6603   209.6635   227.1420
     12  C    Isotropic =   213.0730   Anisotropy =    19.4947
   XX=   211.0507   YX=     1.8029   ZX=    -5.3138
   XY=     0.6084   YY=   204.7920   ZY=     3.3652
   XZ=    -6.8554   YZ=     2.0066   ZZ=   223.3765
   Eigenvalues:   203.6727   209.4769   226.0695
     13  C    Isotropic =   213.8593   Anisotropy =     9.4360
   XX=   219.0575   YX=     3.6153   ZX=    -2.3541
   XY=     1.3286   YY=   214.5521   ZY=     2.3094
   XZ=     0.9314   YZ=     1.3847   ZZ=   207.9683
   Eigenvalues:   207.3300   214.0978   220.1500
     14  N    Isotropic =   303.3248   Anisotropy =    55.0509
   XX=   306.2912   YX=    47.0398   ZX=   -10.5410
   XY=    30.7312   YY=   268.2528   ZY=     7.7738
   XZ=   -14.2735   YZ=    18.9801   ZZ=   335.4303
   Eigenvalues:   240.5947   329.3543   340.0254
     15  C    Isotropic =   205.4856   Anisotropy =    33.1936
   XX=   195.6669   YX=     4.8212   ZX=     9.0634
   XY=     7.3869   YY=   213.1996   ZY=    12.0903
   XZ=    12.5042   YZ=    13.2557   ZZ=   207.5904
   Eigenvalues:   189.2197   199.6225   227.6147
     16  C    Isotropic =   224.3537   Anisotropy =     7.8243
   XX=   220.0613   YX=     1.4273   ZX=     2.7337
   XY=    -2.4524   YY=   223.6440   ZY=    -1.0311
   XZ=    -0.9314   YZ=    -0.6149   ZZ=   229.3557
   Eigenvalues:   219.9236   223.5675   229.5699
     17  C    Isotropic =   215.4420   Anisotropy =    18.5143
   XX=   212.6589   YX=     1.8652   ZX=     3.3769
   XY=     5.9286   YY=   214.3295   ZY=    10.4488
   XZ=     3.6929   YZ=     7.2125   ZZ=   219.3376
   Eigenvalues:   207.4046   211.1365   227.7848
     18  C    Isotropic =   210.8014   Anisotropy =    37.3348
   XX=   201.1537   YX=     3.8969   ZX=   -22.0325
   XY=     8.0085   YY=   205.8777   ZY=     2.2680
   XZ=   -15.7044   YZ=     3.1408   ZZ=   225.3727
   Eigenvalues:   188.4087   208.3042   235.6912
     19  C    Isotropic =   199.8270   Anisotropy =    43.4031
   XX=   214.4891   YX=    25.2125   ZX=    -8.4023
   XY=    22.0651   YY=   189.3700   ZY=     6.9538
   XZ=    -2.5123   YZ=     5.6315   ZZ=   195.6217
   Eigenvalues:   172.2736   198.4449   228.7624
     20  C    Isotropic =   212.2782   Anisotropy =    22.3955
   XX=   224.8894   YX=     2.0872   ZX=     6.1693
   XY=     2.8407   YY=   211.2832   ZY=     5.8307
   XZ=     6.2347   YZ=     4.0169   ZZ=   200.6619
   Eigenvalues:   197.8074   211.8186   227.2085
     21  C    Isotropic =   209.1677   Anisotropy =    11.5251
   XX=   216.3019   YX=     2.2966   ZX=     0.3440
   XY=    -2.8770   YY=   211.7704   ZY=     1.3264
   XZ=    -6.4182   YZ=    -1.0256   ZZ=   199.4309
   Eigenvalues:   198.9001   211.7520   216.8512
     22  C    Isotropic =    96.6638   Anisotropy =    98.9381
   XX=    30.1956   YX=   -68.7237   ZX=   -40.6615
   XY=   -73.6551   YY=   120.2743   ZY=   -18.2138
   XZ=   -60.7082   YZ=   -28.5085   ZZ=   139.5216
   Eigenvalues:   -27.5617   154.9305   162.6226
     23  O    Isotropic =  -135.1776   Anisotropy =   888.0261
   XX=  -208.2664   YX=  -239.8066   ZX=   161.1354
   XY=  -236.4840   YY=   294.9365   ZY=  -213.5360
   XZ=   139.5039   YZ=  -208.4421   ZZ=  -492.2031
   Eigenvalues:  -572.1322  -290.2406   456.8398
     24  O    Isotropic =   283.8833   Anisotropy =   139.6751
   XX=   199.0257   YX=   -66.1800   ZX=    48.3281
   XY=   -12.8872   YY=   348.8455   ZY=     1.7755
   XZ=   172.9375   YZ=    65.9431   ZZ=   303.7787
   Eigenvalues:   117.5156   357.1344   377.0000
     25  C    Isotropic =   197.3242   Anisotropy =    58.1259
   XX=   226.8132   YX=    19.2877   ZX=    -8.3710
   XY=    19.4872   YY=   186.0221   ZY=    -4.3592
   XZ=    -8.4624   YZ=    -3.6102   ZZ=   179.1374
   Eigenvalues:   177.2904   178.6075   236.0748
     26  C    Isotropic =   209.9274   Anisotropy =    41.1071
   XX=   203.8025   YX=    -1.3264   ZX=    11.0957
   XY=     0.9575   YY=   192.6188   ZY=    -0.9596
   XZ=    11.9148   YZ=    -0.9629   ZZ=   233.3607
   Eigenvalues:   192.5952   199.8548   237.3321
     27  C    Isotropic =   206.1475   Anisotropy =    20.4238
   XX=   213.3436   YX=     0.9933   ZX=     9.5970
   XY=     0.3235   YY=   207.4671   ZY=    -0.5374
   XZ=    14.2089   YZ=    -0.1587   ZZ=   197.6318
   Eigenvalues:   191.2025   207.4766   219.7633
     28  C    Isotropic =   118.3106   Anisotropy =   162.6080
   XX=   114.0441   YX=   -78.9391   ZX=   -38.2729
   XY=   -81.3771   YY=   133.3567   ZY=    29.7103
   XZ=   -49.1617   YZ=    29.9713   ZZ=   107.5310
   Eigenvalues:    39.7442    88.4716   226.7160
     29  C    Isotropic =   127.5483   Anisotropy =   151.7491
   XX=   153.3433   YX=   -41.7024   ZX=   -52.7323
   XY=   -36.4279   YY=   161.2048   ZY=    46.6976
   XZ=   -60.5160   YZ=    44.0118   ZZ=    68.0967
   Eigenvalues:    34.7774   119.1531   228.7143
     30  C    Isotropic =   118.5092   Anisotropy =   152.0592
   XX=   143.2411   YX=   -68.3806   ZX=   -11.1052
   XY=   -71.3427   YY=   108.7565   ZY=    60.1590
   XZ=   -12.5960   YZ=    65.6569   ZZ=   103.5299
   Eigenvalues:    26.1486   109.4970   219.8820
     31  C    Isotropic =   133.4623   Anisotropy =   144.8121
   XX=   157.6042   YX=   -40.4876   ZX=   -51.3838
   XY=   -42.6493   YY=   162.2674   ZY=    33.6456
   XZ=   -53.2981   YZ=    46.2221   ZZ=    80.5153
   Eigenvalues:    50.8402   119.5430   230.0037
     32  C    Isotropic =   107.7786   Anisotropy =   131.4634
   XX=   113.9150   YX=   -69.7944   ZX=   -37.1410
   XY=   -59.1781   YY=   117.7395   ZY=    13.2773
   XZ=   -47.6720   YZ=    12.9484   ZZ=    91.6815
   Eigenvalues:    40.1697    87.7453   195.4209
     33  C    Isotropic =   117.5559   Anisotropy =   143.3898
   XX=   139.0068   YX=   -53.1157   ZX=   -33.7208
   XY=   -60.8123   YY=   113.5292   ZY=    53.0884
   XZ=   -23.3899   YZ=    54.0061   ZZ=   100.1315
   Eigenvalues:    48.2176    91.3009   213.1491
     34  N    Isotropic =   271.1862   Anisotropy =    82.4371
   XX=   265.5103   YX=    27.9775   ZX=    11.4391
   XY=    27.5359   YY=   312.4305   ZY=    14.7351
   XZ=    -3.3527   YZ=     0.6354   ZZ=   235.6179
   Eigenvalues:   234.7766   252.6378   326.1443
     35  C    Isotropic =   201.0767   Anisotropy =    15.9840
   XX=   207.7042   YX=    -1.8814   ZX=     0.2340
   XY=    -3.3838   YY=   190.3110   ZY=    -0.0450
   XZ=     9.1096   YZ=    -3.1601   ZZ=   205.2148
   Eigenvalues:   189.8635   201.6338   211.7327
     36  C    Isotropic =   178.7407   Anisotropy =    38.1373
   XX=   169.3331   YX=    -7.1251   ZX=    17.8583
   XY=    11.3910   YY=   181.8490   ZY=   -18.3931
   XZ=    17.7087   YZ=   -13.6436   ZZ=   185.0399
   Eigenvalues:   153.3202   178.7363   204.1655
     37  C    Isotropic =   183.7138   Anisotropy =    43.0227
   XX=   177.5903   YX=   -15.1100   ZX=   -19.9284
   XY=    -7.9392   YY=   172.2009   ZY=    -2.7087
   XZ=   -18.4519   YZ=    -1.7758   ZZ=   201.3503
   Eigenvalues:   157.9858   180.7600   212.3957
     38  C    Isotropic =   210.8232   Anisotropy =    25.3541
   XX=   218.4987   YX=    -9.2740   ZX=   -12.3685
   XY=   -10.6655   YY=   210.1678   ZY=     0.9536
   XZ=    -3.8634   YZ=     2.8533   ZZ=   203.8032
   Eigenvalues:   199.3848   205.3589   227.7260
     39  C    Isotropic =   212.6783   Anisotropy =    19.6858
   XX=   215.6704   YX=    -0.7591   ZX=    -5.5171
   XY=     2.3696   YY=   203.1435   ZY=    -4.0571
   XZ=    -8.7706   YZ=    -6.6205   ZZ=   219.2210
   Eigenvalues:   201.3893   210.8434   225.8021
     40  C    Isotropic =   211.5591   Anisotropy =    10.0389
   XX=   212.3279   YX=    -2.2403   ZX=     0.6589
   XY=    -2.6027   YY=   214.6234   ZY=    -5.0703
   XZ=     1.3945   YZ=    -4.5408   ZZ=   207.7262
   Eigenvalues:   205.2541   211.1715   218.2518
     41  N    Isotropic =   235.5440   Anisotropy =    23.9013
   XX=   236.7729   YX=    24.2922   ZX=   -14.8067
   XY=    11.5598   YY=   229.6076   ZY=     1.4305
   XZ=     3.7146   YZ=    12.9150   ZZ=   240.2515
   Eigenvalues:   212.0020   243.1519   251.4782
     42  C    Isotropic =   194.0222   Anisotropy =    49.1948
   XX=   190.3215   YX=   -10.8528   ZX=    18.1303
   XY=   -16.0851   YY=   188.6444   ZY=   -15.3017
   XZ=    20.3805   YZ=   -12.9229   ZZ=   203.1006
   Eigenvalues:   174.9506   180.2972   226.8188
     43  C    Isotropic =   219.3872   Anisotropy =     9.2499
   XX=   209.8887   YX=    -6.0740   ZX=    -3.4285
   XY=    -2.9375   YY=   223.8905   ZY=    -0.7588
   XZ=    -4.4043   YZ=    -0.9629   ZZ=   224.3826
   Eigenvalues:   207.6098   224.9981   225.5538
     44  C    Isotropic =   214.9528   Anisotropy =    20.9876
   XX=   212.2671   YX=    -4.6657   ZX=     1.7384
   XY=    -7.5166   YY=   212.1439   ZY=   -11.6666
   XZ=     1.6378   YZ=    -9.1333   ZZ=   220.4475
   Eigenvalues:   203.0650   212.8489   228.9446
     45  C    Isotropic =   206.8719   Anisotropy =    34.2240
   XX=   196.3877   YX=   -18.5988   ZX=   -11.9693
   XY=   -13.7822   YY=   201.0842   ZY=     3.3569
   XZ=   -12.3570   YZ=    -1.9832   ZZ=   223.1438
   Eigenvalues:   180.4901   210.4376   229.6879
     46  C    Isotropic =   190.8617   Anisotropy =    51.5931
   XX=   165.4347   YX=   -15.9329   ZX=    -0.3679
   XY=   -14.8871   YY=   220.9607   ZY=     7.0034
   XZ=    -8.5961   YZ=    -2.1969   ZZ=   186.1896
   Eigenvalues:   160.8888   186.4392   225.2571
     47  C    Isotropic =   211.1885   Anisotropy =    25.7693
   XX=   223.4686   YX=    -0.6142   ZX=    10.9374
   XY=     0.4253   YY=   208.8734   ZY=    -5.1797
   XZ=    11.3658   YZ=    -6.1141   ZZ=   201.2236
   Eigenvalues:   194.6847   210.5127   228.3681
     48  C    Isotropic =   207.6157   Anisotropy =    13.7238
   XX=   216.3146   YX=    -0.7740   ZX=     0.7939
   XY=     3.0380   YY=   204.4010   ZY=    -1.7534
   XZ=    -5.1291   YZ=     0.0050   ZZ=   202.1314
   Eigenvalues:   201.6255   204.4566   216.7649
     49  C    Isotropic =    98.5862   Anisotropy =   103.7951
   XX=    57.0756   YX=    84.9255   ZX=     4.1173
   XY=   109.6557   YY=    79.7088   ZY=    -4.7321
   XZ=    -4.7561   YZ=    -4.2300   ZZ=   158.9743
   Eigenvalues:   -29.5942   157.5700   167.7830
     50  O    Isotropic =  -132.8073   Anisotropy =   874.8193
   XX=  -326.1381   YX=   -69.9098   ZX=   225.4494
   XY=   -45.2759   YY=  -375.9500   ZY=   267.9135
   XZ=   225.9312   YZ=   282.1247   ZZ=   303.6662
   Eigenvalues:  -559.6459  -289.1816   450.4056
     51  O    Isotropic =   286.3083   Anisotropy =   132.1732
   XX=   154.3091   YX=    34.6510   ZX=    54.5031
   XY=   -99.7008   YY=   365.8301   ZY=    22.8701
   XZ=    84.3149   YZ=   -16.7919   ZZ=   338.7856
   Eigenvalues:   126.8723   357.6288   374.4238
     52  C    Isotropic =   197.5431   Anisotropy =    58.7038
   XX=   231.6069   YX=   -12.3024   ZX=   -10.5861
   XY=   -12.7994   YY=   179.8355   ZY=     3.1498
   XZ=   -10.7733   YZ=     2.3411   ZZ=   181.1868
   Eigenvalues:   176.9156   179.0348   236.6789
     53  C    Isotropic =   210.5826   Anisotropy =    41.3237
   XX=   202.7977   YX=     1.0879   ZX=     9.8624
   XY=    -0.5258   YY=   194.3313   ZY=     5.5745
   XZ=    10.3347   YZ=     4.7441   ZZ=   234.6187
   Eigenvalues:   193.5395   200.0765   238.1317
     54  O    Isotropic =    80.8288   Anisotropy =   395.6947
   XX=   275.4231   YX=   145.1037   ZX=   -30.9035
   XY=   152.0283   YY=    22.2654   ZY=    -7.2397
   XZ=    -2.7685   YZ=     6.0347   ZZ=   -55.2021
   Eigenvalues:   -59.1168   -43.0220   344.6253
     55  H    Isotropic =    26.5533   Anisotropy =    15.7495
   XX=    30.9367   YX=    -6.0102   ZX=     0.6431
   XY=    -8.8271   YY=    27.9632   ZY=     0.6753
   XZ=    -1.1972   YZ=     1.0909   ZZ=    20.7599
   Eigenvalues:    20.5330    22.0740    37.0529
     56  H    Isotropic =    25.6781   Anisotropy =     5.8649
   XX=    25.7753   YX=    -1.2033   ZX=     3.8576
   XY=    -1.3081   YY=    25.6729   ZY=     1.7914
   XZ=     3.8546   YZ=     1.9436   ZZ=    25.5862
   Eigenvalues:    20.8116    26.6347    29.5881
     57  H    Isotropic =    26.5317   Anisotropy =     7.6985
   XX=    25.5710   YX=    -3.3373   ZX=     2.7047
   XY=    -2.9818   YY=    29.1515   ZY=     3.7958
   XZ=     2.4110   YZ=     3.3280   ZZ=    24.8725
   Eigenvalues:    20.1280    27.8031    31.6640
     58  H    Isotropic =    32.0196   Anisotropy =    14.9601
   XX=    41.1412   YX=    -2.5323   ZX=     0.0694
   XY=    -3.4810   YY=    28.3868   ZY=     1.4319
   XZ=    -2.9664   YZ=     0.8202   ZZ=    26.5309
   Eigenvalues:    25.9997    28.0662    41.9930
     59  H    Isotropic =    33.1491   Anisotropy =     9.7716
   XX=    37.1648   YX=     0.1519   ZX=    -4.7588
   XY=    -2.9172   YY=    32.9717   ZY=     2.5383
   XZ=    -3.8653   YZ=     0.9972   ZZ=    29.3109
   Eigenvalues:    27.1999    32.5840    39.6635
     60  H    Isotropic =    32.2247   Anisotropy =    12.4225
   XX=    27.8266   YX=     3.0966   ZX=     2.3143
   XY=     1.3800   YY=    29.5565   ZY=    -3.1655
   XZ=     2.8818   YZ=    -3.1212   ZZ=    39.2912
   Eigenvalues:    25.1856    30.9822    40.5064
     61  H    Isotropic =    32.4250   Anisotropy =    13.4625
   XX=    28.0174   YX=     0.5334   ZX=    -0.0370
   XY=     0.5053   YY=    37.2969   ZY=    -6.1358
   XZ=    -0.1786   YZ=    -6.2714   ZZ=    31.9607
   Eigenvalues:    27.7325    28.1425    41.4000
     62  H    Isotropic =    32.8114   Anisotropy =    18.5319
   XX=    44.4211   YX=     2.8767   ZX=    -2.5306
   XY=     1.9441   YY=    26.7901   ZY=     0.3873
   XZ=    -3.0639   YZ=    -0.0232   ZZ=    27.2229
   Eigenvalues:    26.0626    27.2055    45.1660
     63  H    Isotropic =    32.0865   Anisotropy =    14.1824
   XX=    39.8045   YX=    -1.2083   ZX=     4.3618
   XY=    -0.1448   YY=    26.8572   ZY=     1.7323
   XZ=     4.7453   YZ=     1.2490   ZZ=    29.5977
   Eigenvalues:    25.6496    29.0684    41.5414
     64  H    Isotropic =    31.9286   Anisotropy =    15.5246
   XX=    26.1270   YX=     0.8550   ZX=    -1.4268
   XY=     0.8641   YY=    27.4684   ZY=     0.4089
   XZ=    -0.9562   YZ=    -0.3550   ZZ=    42.1904
   Eigenvalues:    25.6362    27.8713    42.2784
     65  H    Isotropic =    32.7251   Anisotropy =    17.2740
   XX=    27.7885   YX=     3.5251   ZX=     2.7750
   XY=     3.1254   YY=    36.0769   ZY=     7.8504
   XZ=     2.4338   YZ=     7.9867   ZZ=    34.3100
   Eigenvalues:    26.5952    27.3390    44.2411
     66  H    Isotropic =    32.6044   Anisotropy =    12.4847
   XX=    37.2577   YX=    -3.8234   ZX=    -3.5230
   XY=    -3.6506   YY=    29.8214   ZY=     3.6731
   XZ=    -3.3600   YZ=     3.5807   ZZ=    30.7340
   Eigenvalues:    26.5838    30.3018    40.9275
     67  H    Isotropic =    32.7953   Anisotropy =    14.2025
   XX=    41.2548   YX=     3.5170   ZX=    -1.5971
   XY=     3.4985   YY=    28.8166   ZY=     1.9485
   XZ=    -1.6810   YZ=     1.9358   ZZ=    28.3145
   Eigenvalues:    25.7674    30.3548    42.2636
     68  H    Isotropic =    32.5467   Anisotropy =    14.0266
   XX=    27.0916   YX=    -1.6173   ZX=     1.0101
   XY=    -0.9863   YY=    41.6086   ZY=    -1.3909
   XZ=     0.7822   YZ=    -1.4543   ZZ=    28.9400
   Eigenvalues:    26.6954    29.0471    41.8978
     69  H    Isotropic =    32.4501   Anisotropy =    11.4573
   XX=    27.5387   YX=    -1.5595   ZX=    -3.4073
   XY=    -0.6987   YY=    38.4937   ZY=    -5.3235
   XZ=    -2.5564   YZ=    -2.1517   ZZ=    31.3178
   Eigenvalues:    25.2629    31.9991    40.0882
     70  H    Isotropic =    32.9858   Anisotropy =    12.0396
   XX=    40.3514   YX=     2.8507   ZX=     1.1183
   XY=     2.6878   YY=    28.1779   ZY=    -2.3898
   XZ=     1.1764   YZ=    -0.7292   ZZ=    30.4280
   Eigenvalues:    26.7243    31.2209    41.0122
     71  H    Isotropic =    31.9322   Anisotropy =    16.2769
   XX=    27.7499   YX=     3.4901   ZX=    -4.9362
   XY=     2.2151   YY=    28.9081   ZY=    -5.4785
   XZ=    -3.4786   YZ=    -4.3965   ZZ=    39.1387
   Eigenvalues:    25.4155    27.5977    42.7835
     72  H    Isotropic =    32.0201   Anisotropy =    10.2566
   XX=    35.9229   YX=    -3.1822   ZX=    -3.5951
   XY=    -3.1124   YY=    29.6388   ZY=     0.6425
   XZ=    -3.3409   YZ=     1.9003   ZZ=    30.4985
   Eigenvalues:    28.2985    28.9040    38.8578
     73  H    Isotropic =    31.4070   Anisotropy =    10.4471
   XX=    33.8657   YX=    -2.1979   ZX=    -4.0513
   XY=    -1.1548   YY=    26.6605   ZY=     2.8222
   XZ=    -3.4400   YZ=     2.7176   ZZ=    33.6949
   Eigenvalues:    25.6805    30.1688    38.3717
     74  H    Isotropic =    32.2617   Anisotropy =    14.5020
   XX=    30.0955   YX=    -4.7990   ZX=     3.0618
   XY=    -3.9909   YY=    39.6041   ZY=    -1.8565
   XZ=     2.9728   YZ=    -2.1502   ZZ=    27.0855
   Eigenvalues:    25.1851    29.6704    41.9297
     75  H    Isotropic =    31.2445   Anisotropy =    12.2391
   XX=    30.5936   YX=    -2.0553   ZX=     5.4038
   XY=    -1.6284   YY=    29.6141   ZY=    -4.7494
   XZ=     5.2034   YZ=    -3.0842   ZZ=    33.5259
   Eigenvalues:    26.1289    28.2007    39.4039
     76  H    Isotropic =    30.5697   Anisotropy =    11.8813
   XX=    36.7435   YX=    -3.5985   ZX=    -1.0004
   XY=    -3.8650   YY=    28.6140   ZY=     1.3650
   XZ=    -1.7340   YZ=     1.9791   ZZ=    26.3515
   Eigenvalues:    25.4249    27.7936    38.4905
     77  H    Isotropic =    30.6408   Anisotropy =     8.0823
   XX=    31.6178   YX=     2.3896   ZX=    -0.5032
   XY=     3.1424   YY=    31.0794   ZY=    -3.8151
   XZ=    -1.0880   YZ=    -4.4423   ZZ=    29.2252
   Eigenvalues:    25.6816    30.2118    36.0290
     78  H    Isotropic =    30.5367   Anisotropy =    12.1621
   XX=    33.2679   YX=     3.3867   ZX=     4.6989
   XY=     3.4209   YY=    27.5057   ZY=     3.8485
   XZ=     3.7383   YZ=     3.5248   ZZ=    30.8366
   Eigenvalues:    25.0554    27.9099    38.6448
     79  H    Isotropic =    31.9085   Anisotropy =    10.8287
   XX=    30.5278   YX=     1.4793   ZX=    -3.5935
   XY=     0.0860   YY=    27.0415   ZY=     0.3120
   XZ=    -2.1784   YZ=     0.5900   ZZ=    38.1562
   Eigenvalues:    26.7590    29.8389    39.1277
     80  H    Isotropic =    30.7014   Anisotropy =    14.8651
   XX=    29.9295   YX=     3.6849   ZX=     5.1088
   XY=     3.2194   YY=    31.5515   ZY=     5.9035
   XZ=     5.5980   YZ=     5.8726   ZZ=    30.6230
   Eigenvalues:    24.2461    27.2466    40.6114
     81  H    Isotropic =    30.8731   Anisotropy =    10.7909
   XX=    31.4241   YX=    -4.4347   ZX=     4.3049
   XY=    -4.8945   YY=    28.9171   ZY=    -0.1458
   XZ=     5.3082   YZ=    -0.4733   ZZ=    32.2780
   Eigenvalues:    24.2439    30.3083    38.0670
     82  H    Isotropic =    30.0556   Anisotropy =    11.5320
   XX=    27.4631   YX=    -3.0659   ZX=     0.0924
   XY=     0.0291   YY=    32.8390   ZY=     6.2393
   XZ=     1.7018   YZ=     6.1103   ZZ=    29.8648
   Eigenvalues:    24.1716    28.2517    37.7436
     83  H    Isotropic =    30.0162   Anisotropy =    11.6358
   XX=    27.2879   YX=     3.5982   ZX=    -0.1913
   XY=     0.4007   YY=    32.3825   ZY=    -6.2827
   XZ=     1.8726   YZ=    -6.1557   ZZ=    30.3780
   Eigenvalues:    23.9378    28.3373    37.7734
     84  H    Isotropic =    27.0749   Anisotropy =    14.3515
   XX=    31.5004   YX=     5.7931   ZX=    -0.0353
   XY=     7.7776   YY=    27.3155   ZY=    -0.8504
   XZ=    -2.0344   YZ=    -0.9965   ZZ=    22.4088
   Eigenvalues:    22.1622    22.4199    36.6426
     85  H    Isotropic =    25.5317   Anisotropy =     5.8251
   XX=    25.2040   YX=     1.5593   ZX=     3.6660
   XY=     1.4094   YY=    25.2688   ZY=    -1.8860
   XZ=     3.6752   YZ=    -1.8649   ZZ=    26.1223
   Eigenvalues:    20.7359    26.4441    29.4151
     86  H    Isotropic =    26.2931   Anisotropy =     7.4928
   XX=    25.2241   YX=     3.6977   ZX=     2.3685
   XY=     3.0151   YY=    28.0922   ZY=    -4.0772
   XZ=     1.9324   YZ=    -3.4578   ZZ=    25.5630
   Eigenvalues:    20.0772    27.5138    31.2883
     87  H    Isotropic =    32.1548   Anisotropy =     9.4151
   XX=    37.1601   YX=     2.6545   ZX=     2.3300
   XY=     3.6642   YY=    30.0797   ZY=    -1.4766
   XZ=     0.2010   YZ=    -0.8202   ZZ=    29.2247
   Eigenvalues:    27.4913    30.5416    38.4316
     88  H    Isotropic =    33.0481   Anisotropy =     8.6532
   XX=    36.1839   YX=    -1.1421   ZX=    -4.8834
   XY=     2.1998   YY=    33.4274   ZY=    -3.2682
   XZ=    -3.7397   YZ=    -1.8551   ZZ=    29.5331
   Eigenvalues:    26.7523    33.5752    38.8169
     89  H    Isotropic =    32.0542   Anisotropy =    11.6087
   XX=    28.6145   YX=    -3.0319   ZX=     1.0318
   XY=    -1.0951   YY=    30.1567   ZY=     4.8760
   XZ=     1.3514   YZ=     4.7411   ZZ=    37.3915
   Eigenvalues:    25.7682    30.6011    39.7933
     90  H    Isotropic =    32.2503   Anisotropy =    13.3298
   XX=    31.6404   YX=    -4.9792   ZX=    -2.7289
   XY=    -4.4362   YY=    35.3897   ZY=     4.5599
   XZ=    -2.7225   YZ=     4.7870   ZZ=    29.7207
   Eigenvalues:    27.0870    28.5270    41.1368
     91  H    Isotropic =    33.0611   Anisotropy =    19.3737
   XX=    45.8671   YX=     0.5217   ZX=    -0.0156
   XY=     2.0645   YY=    27.1936   ZY=    -1.1312
   XZ=    -1.1603   YZ=    -0.4007   ZZ=    26.1225
   Eigenvalues:    25.7231    27.4833    45.9768
     92  H    Isotropic =    30.9860   Anisotropy =    14.9016
   XX=    26.3330   YX=    -1.7267   ZX=    -2.8867
   XY=    -0.9957   YY=    26.5774   ZY=    -0.6417
   XZ=    -4.1973   YZ=    -0.8722   ZZ=    40.0475
   Eigenvalues:    24.4215    27.6160    40.9204
     93  H    Isotropic =    32.2876   Anisotropy =    10.4444
   XX=    35.1606   YX=     3.4580   ZX=     4.2905
   XY=     2.7511   YY=    29.4091   ZY=     0.3387
   XZ=     4.7145   YZ=     0.5654   ZZ=    32.2930
   Eigenvalues:    27.3837    30.2286    39.2505
     94  H    Isotropic =    32.4372   Anisotropy =    16.2631
   XX=    30.1598   YX=    -4.8697   ZX=     4.4894
   XY=    -4.2030   YY=    31.5049   ZY=    -6.1672
   XZ=     4.2554   YZ=    -6.6865   ZZ=    35.6468
   Eigenvalues:    26.0079    28.0243    43.2792
     95  H    Isotropic =    31.1622   Anisotropy =    14.2905
   XX=    32.1766   YX=     5.8106   ZX=    -3.3436
   XY=     6.2347   YY=    32.3328   ZY=    -3.9662
   XZ=    -3.3970   YZ=    -4.3032   ZZ=    28.9771
   Eigenvalues:    25.9074    26.8900    40.6892
     96  H    Isotropic =    32.8552   Anisotropy =    15.4845
   XX=    43.0480   YX=    -1.6279   ZX=    -0.6427
   XY=    -1.0303   YY=    26.2826   ZY=    -2.6607
   XZ=    -0.9505   YZ=    -2.6156   ZZ=    29.2350
   Eigenvalues:    24.6055    30.7819    43.1782
     97  H    Isotropic =    32.1747   Anisotropy =    13.5419
   XX=    26.9297   YX=    -1.5888   ZX=     0.1427
   XY=    -1.3294   YY=    41.0338   ZY=     0.6273
   XZ=     0.0753   YZ=     0.3919   ZZ=    28.5606
   Eigenvalues:    26.7658    28.5557    41.2026
     98  H    Isotropic =    32.4625   Anisotropy =    11.0783
   XX=    30.0904   YX=    -2.8437   ZX=    -2.8607
   XY=    -5.4412   YY=    37.9666   ZY=     0.8964
   XZ=    -2.1818   YZ=    -0.8351   ZZ=    29.3306
   Eigenvalues:    26.4303    31.1093    39.8481
     99  H    Isotropic =    30.5872   Anisotropy =    14.1078
   XX=    39.7429   YX=     0.9907   ZX=     1.3680
   XY=    -0.2298   YY=    23.9979   ZY=     1.6285
   XZ=     1.8973   YZ=     2.3158   ZZ=    28.0209
   Eigenvalues:    23.1880    28.5812    39.9924
    100  H    Isotropic =    31.8080   Anisotropy =    10.5846
   XX=    30.7744   YX=     4.2297   ZX=     1.5873
   XY=     4.8067   YY=    33.1743   ZY=     4.5474
   XZ=     1.6648   YZ=     3.0946   ZZ=    31.4752
   Eigenvalues:    26.9248    29.6348    38.8644
    101  H    Isotropic =    30.9564   Anisotropy =    15.5755
   XX=    29.6387   YX=    -2.3117   ZX=    -6.0954
   XY=    -4.4375   YY=    27.6847   ZY=     4.3419
   XZ=    -6.3509   YZ=     3.2954   ZZ=    35.5457
   Eigenvalues:    25.0005    26.5286    41.3400
    102  H    Isotropic =    30.0957   Anisotropy =    12.4684
   XX=    32.3386   YX=     5.6001   ZX=    -2.8168
   XY=     5.7179   YY=    28.5435   ZY=    -3.1685
   XZ=    -1.6136   YZ=    -4.9639   ZZ=    29.4049
   Eigenvalues:    23.5724    28.3067    38.4079
    103  H    Isotropic =    31.7649   Anisotropy =    13.8941
   XX=    28.4450   YX=     1.1078   ZX=     1.8519
   XY=     1.7005   YY=    39.0325   ZY=     4.6501
   XZ=     1.9057   YZ=     4.6816   ZZ=    27.8173
   Eigenvalues:    25.5103    28.7569    41.0277
    104  H    Isotropic =    31.3657   Anisotropy =    12.2650
   XX=    29.0109   YX=     2.7669   ZX=     4.6259
   XY=     2.6953   YY=    29.7660   ZY=     3.8413
   XZ=     2.8596   YZ=     4.4597   ZZ=    35.3202
   Eigenvalues:    26.6284    27.9263    39.5424
    105  H    Isotropic =    30.5910   Anisotropy =    11.2208
   XX=    32.4501   YX=    -4.8589   ZX=     0.8895
   XY=    -4.6034   YY=    33.6784   ZY=    -1.8448
   XZ=     0.3394   YZ=    -1.6300   ZZ=    25.6444
   Eigenvalues:    25.2571    28.4443    38.0715
    106  H    Isotropic =    30.4868   Anisotropy =     9.3600
   XX=    32.8650   YX=    -0.8544   ZX=    -3.2329
   XY=    -1.0144   YY=    25.1587   ZY=    -0.3581
   XZ=    -3.8250   YZ=     0.3725   ZZ=    33.4366
   Eigenvalues:    25.0224    29.7112    36.7268
    107  H    Isotropic =    30.5504   Anisotropy =    12.6402
   XX=    36.7341   YX=     2.3763   ZX=     4.1158
   XY=     2.7483   YY=    27.2315   ZY=     1.9932
   XZ=     3.7839   YZ=     1.3512   ZZ=    27.6858
   Eigenvalues:    25.6779    26.9962    38.9772
    108  H    Isotropic =    31.2197   Anisotropy =    11.5478
   XX=    31.2667   YX=     5.0838   ZX=     4.7692
   XY=     5.4526   YY=    29.3952   ZY=     1.0042
   XZ=     4.9258   YZ=     0.5190   ZZ=    32.9971
   Eigenvalues:    24.1106    30.6302    38.9182
    109  H    Isotropic =    30.5938   Anisotropy =    15.0832
   XX=    28.5321   YX=    -2.8342   ZX=     5.5407
   XY=    -2.5729   YY=    30.7296   ZY=    -5.7120
   XZ=     5.5542   YZ=    -6.2456   ZZ=    32.5195
   Eigenvalues:    24.1576    26.9745    40.6493
    110  H    Isotropic =    31.7842   Anisotropy =    10.7873
   XX=    30.6482   YX=    -2.3196   ZX=    -3.3700
   XY=    -1.0997   YY=    26.9594   ZY=     1.2468
   XZ=    -2.4782   YZ=     0.6382   ZZ=    37.7449
   Eigenvalues:    26.2851    30.0917    38.9757
 End of Minotr F.D. properties file   721 does not exist.
 End of Minotr F.D. properties file   722 does not exist.
 End of Minotr F.D. properties file   788 does not exist.
 Hyperfine terms turned off by default for NAtoms > 100.

 **********************************************************************

            Population analysis using the SCF Density.

 **********************************************************************

 Orbital symmetries:
       Occupied  (A) (A) (A) (A) (A) (A) (A) (A) (A) (A) (A) (A)
                 (A) (A) (A) (A) (A) (A) (A) (A) (A) (A) (A) (A)
                 (A) (A) (A) (A) (A) (A) (A) (A) (A) (A) (A) (A)
                 (A) (A) (A) (A) (A) (A) (A) (A) (A) (A) (A) (A)
                 (A) (A) (A) (A) (A) (A) (A) (A) (A) (A) (A) (A)
                 (A) (A) (A) (A) (A) (A) (A) (A) (A) (A) (A) (A)
                 (A) (A) (A) (A) (A) (A) (A) (A) (A) (A) (A) (A)
                 (A) (A) (A) (A) (A) (A) (A) (A) (A) (A) (A) (A)
                 (A) (A) (A) (A) (A) (A) (A) (A) (A) (A) (A) (A)
                 (A) (A) (A) (A) (A) (A) (A) (A) (A) (A) (A) (A)
                 (A) (A) (A) (A) (A) (A) (A) (A) (A) (A) (A) (A)
                 (A) (A) (A) (A) (A) (A) (A) (A) (A) (A) (A) (A)
                 (A) (A) (A) (A) (A) (A) (A) (A) (A) (A) (A) (A)
                 (A) (A) (A) (A) (A) (A) (A) (A) (A) (A) (A) (A)
                 (A) (A) (A) (A) (A) (A) (A) (A) (A) (A) (A) (A)
                 (A) (A) (A) (A) (A) (A) (A) (A) (A) (A) (A) (A)
                 (A) (A) (A) (A) (A)
       Virtual   (A) (A) (A) (A) (A) (A) (A) (A) (A) (A) (A) (A)
                 (A) (A) (A) (A) (A) (A) (A) (A) (A) (A) (A) (A)
                 (A) (A) (A) (A) (A) (A) (A) (A) (A) (A) (A) (A)
                 (A) (A) (A) (A) (A) (A) (A) (A) (A) (A) (A) (A)
                 (A) (A) (A) (A) (A) (A) (A) (A) (A) (A) (A) (A)
                 (A) (A) (A) (A) (A) (A) (A) (A) (A) (A) (A) (A)
                 (A) (A) (A) (A) (A) (A) (A) (A) (A) (A) (A) (A)
                 (A) (A) (A) (A) (A) (A) (A) (A) (A) (A) (A) (A)
                 (A) (A) (A) (A) (A) (A) (A) (A) (A) (A) (A) (A)
                 (A) (A) (A) (A) (A) (A) (A) (A) (A) (A) (A) (A)
                 (A) (A) (A) (A) (A) (A) (A) (A) (A)
 The electronic state is 1-A.
 Alpha  occ. eigenvalues --  -20.30806 -20.29063 -20.24832 -20.22284 -19.92122
 Alpha  occ. eigenvalues --  -15.48411 -15.33817 -15.33548 -15.30724 -11.16725
 Alpha  occ. eigenvalues --  -11.14732 -11.10706 -11.09857 -11.09740 -11.09489
 Alpha  occ. eigenvalues --  -11.09415 -11.09178 -11.08888 -11.08243 -11.08054
 Alpha  occ. eigenvalues --  -11.07362 -11.07046 -11.06692 -11.06603 -11.06458
 Alpha  occ. eigenvalues --  -11.06262 -11.05935 -11.05887 -11.05830 -11.05716
 Alpha  occ. eigenvalues --  -11.05654 -11.05335 -11.04996 -11.04959 -11.04660
 Alpha  occ. eigenvalues --  -11.04656 -11.04453 -11.04395 -11.04390 -11.04359
 Alpha  occ. eigenvalues --  -11.04134 -11.03848 -11.03796 -11.03280 -11.02346
 Alpha  occ. eigenvalues --  -11.02308 -11.02255 -11.02118 -11.01949 -11.01942
 Alpha  occ. eigenvalues --  -11.01935 -11.01691 -11.01577 -11.01543  -1.38041
 Alpha  occ. eigenvalues --   -1.36141  -1.29870  -1.27849  -1.25440  -1.21704
 Alpha  occ. eigenvalues --   -1.20910  -1.19073  -1.10672  -1.09961  -1.09087
 Alpha  occ. eigenvalues --   -1.07713  -1.06002  -1.05119  -1.02912  -1.01022
 Alpha  occ. eigenvalues --   -0.99374  -0.98926  -0.98699  -0.97563  -0.97071
 Alpha  occ. eigenvalues --   -0.96658  -0.95418  -0.94727  -0.94176  -0.92429
 Alpha  occ. eigenvalues --   -0.91867  -0.91733  -0.90276  -0.89643  -0.88150
 Alpha  occ. eigenvalues --   -0.86633  -0.85065  -0.82965  -0.82226  -0.81049
 Alpha  occ. eigenvalues --   -0.80582  -0.79858  -0.78503  -0.77970  -0.77683
 Alpha  occ. eigenvalues --   -0.77390  -0.74665  -0.74257  -0.72920  -0.72325
 Alpha  occ. eigenvalues --   -0.71431  -0.70481  -0.69627  -0.68608  -0.66183
 Alpha  occ. eigenvalues --   -0.65501  -0.65140  -0.64913  -0.63838  -0.63351
 Alpha  occ. eigenvalues --   -0.62497  -0.62432  -0.61724  -0.61465  -0.61344
 Alpha  occ. eigenvalues --   -0.60835  -0.59972  -0.59492  -0.58965  -0.58705
 Alpha  occ. eigenvalues --   -0.58446  -0.58366  -0.58053  -0.57977  -0.57441
 Alpha  occ. eigenvalues --   -0.57030  -0.56932  -0.56334  -0.55840  -0.55352
 Alpha  occ. eigenvalues --   -0.55080  -0.54908  -0.54813  -0.54655  -0.54380
 Alpha  occ. eigenvalues --   -0.54148  -0.53653  -0.53399  -0.53310  -0.52275
 Alpha  occ. eigenvalues --   -0.51986  -0.51801  -0.51145  -0.50865  -0.50713
 Alpha  occ. eigenvalues --   -0.50133  -0.49681  -0.49598  -0.49194  -0.48585
 Alpha  occ. eigenvalues --   -0.48480  -0.48302  -0.47865  -0.47518  -0.47371
 Alpha  occ. eigenvalues --   -0.47070  -0.46282  -0.46145  -0.45899  -0.45272
 Alpha  occ. eigenvalues --   -0.45078  -0.44951  -0.44699  -0.44431  -0.43943
 Alpha  occ. eigenvalues --   -0.43674  -0.43383  -0.43156  -0.42850  -0.42723
 Alpha  occ. eigenvalues --   -0.42494  -0.42351  -0.41584  -0.41002  -0.40857
 Alpha  occ. eigenvalues --   -0.40597  -0.39978  -0.39024  -0.38618  -0.38259
 Alpha  occ. eigenvalues --   -0.37688  -0.37446  -0.36725  -0.35717  -0.34434
 Alpha  occ. eigenvalues --   -0.33521  -0.33150  -0.32266  -0.31327  -0.30834
 Alpha  occ. eigenvalues --   -0.27508  -0.27162  -0.26294  -0.21389  -0.20521
 Alpha  occ. eigenvalues --   -0.16048  -0.15549
 Alpha virt. eigenvalues --    0.26605   0.27325   0.27548   0.28216   0.30260
 Alpha virt. eigenvalues --    0.32867   0.45524   0.47847   0.48430   0.48500
 Alpha virt. eigenvalues --    0.49063   0.49956   0.50004   0.51639   0.51946
 Alpha virt. eigenvalues --    0.53543   0.53798   0.55018   0.55350   0.55431
 Alpha virt. eigenvalues --    0.56967   0.57048   0.57736   0.58032   0.59027
 Alpha virt. eigenvalues --    0.59454   0.59640   0.59875   0.60550   0.60733
 Alpha virt. eigenvalues --    0.61062   0.61416   0.61667   0.62763   0.62833
 Alpha virt. eigenvalues --    0.62944   0.63241   0.63755   0.64094   0.64303
 Alpha virt. eigenvalues --    0.64574   0.64931   0.65059   0.65422   0.65591
 Alpha virt. eigenvalues --    0.66120   0.66351   0.66494   0.66679   0.67102
 Alpha virt. eigenvalues --    0.67390   0.67593   0.67663   0.68032   0.68210
 Alpha virt. eigenvalues --    0.68519   0.68718   0.69167   0.69419   0.69698
 Alpha virt. eigenvalues --    0.69949   0.70216   0.70446   0.70523   0.70794
 Alpha virt. eigenvalues --    0.70954   0.71057   0.71135   0.71421   0.72106
 Alpha virt. eigenvalues --    0.72223   0.72842   0.72963   0.73223   0.73730
 Alpha virt. eigenvalues --    0.73820   0.74089   0.74438   0.74471   0.74686
 Alpha virt. eigenvalues --    0.74765   0.75093   0.75736   0.75888   0.76051
 Alpha virt. eigenvalues --    0.76411   0.76468   0.76606   0.77335   0.77537
 Alpha virt. eigenvalues --    0.77638   0.78168   0.78476   0.79016   0.79131
 Alpha virt. eigenvalues --    0.79361   0.79707   0.79932   0.80418   0.80609
 Alpha virt. eigenvalues --    0.80848   0.81056   0.81690   0.81763   0.82487
 Alpha virt. eigenvalues --    0.82920   0.83865   0.84195   0.84408   0.84525
 Alpha virt. eigenvalues --    0.85618   0.86069   0.86559   0.87178   0.87866
 Alpha virt. eigenvalues --    0.87895   0.89209   0.90566   0.91364   0.94077
 Alpha virt. eigenvalues --    0.94588   0.95482   0.97538   1.01204   1.02276
 Alpha virt. eigenvalues --    1.10015   1.11475   1.15572   1.16034
          Condensed to atoms (all electrons):
 Mulliken charges:
               1
     1  C   -0.074484
     2  C   -0.001750
     3  C   -0.064034
     4  C   -0.091264
     5  C    0.088981
     6  C   -0.013709
     7  N   -0.286512
     8  C    0.018221
     9  C    0.128456
    10  C    0.041149
    11  C   -0.114664
    12  C   -0.106010
    13  C    0.027884
    14  N   -0.291248
    15  C   -0.014540
    16  C   -0.108300
    17  C   -0.102135
    18  C   -0.105350
    19  C   -0.019247
    20  C   -0.110493
    21  C   -0.066405
    22  C    0.319585
    23  O   -0.276178
    24  O   -0.255592
    25  C   -0.055864
    26  C   -0.078761
    27  C   -0.110398
    28  C    0.001109
    29  C   -0.079300
    30  C   -0.062124
    31  C   -0.090167
    32  C    0.093657
    33  C   -0.013690
    34  N   -0.278775
    35  C    0.015512
    36  C    0.135063
    37  C    0.039969
    38  C   -0.116489
    39  C   -0.105573
    40  C    0.040494
    41  N   -0.080394
    42  C   -0.002952
    43  C   -0.097114
    44  C   -0.099211
    45  C   -0.095846
    46  C   -0.004376
    47  C   -0.098607
    48  C   -0.059230
    49  C    0.324972
    50  O   -0.273328
    51  O   -0.255595
    52  C   -0.055709
    53  C   -0.077983
    54  O   -0.461331
    55  H    0.068355
    56  H    0.055422
    57  H    0.057985
    58  H    0.054511
    59  H    0.051194
    60  H    0.050674
    61  H    0.048796
    62  H    0.047958
    63  H    0.053231
    64  H    0.062158
    65  H    0.053976
    66  H    0.051008
    67  H    0.049831
    68  H    0.051735
    69  H    0.063918
    70  H    0.063585
    71  H    0.057764
    72  H    0.051356
    73  H    0.068614
    74  H    0.051549
    75  H    0.064840
    76  H    0.072577
    77  H    0.074978
    78  H    0.077403
    79  H    0.054085
    80  H    0.072415
    81  H    0.077022
    82  H    0.059497
    83  H    0.061878
    84  H    0.054691
    85  H    0.057036
    86  H    0.060490
    87  H    0.053724
    88  H    0.056186
    89  H    0.049626
    90  H    0.052521
    91  H    0.045664
    92  H    0.085160
    93  H    0.054838
    94  H    0.057567
    95  H    0.082560
    96  H    0.045398
    97  H    0.058996
    98  H    0.066794
    99  H    0.092969
   100  H    0.056551
   101  H    0.089903
   102  H    0.101174
   103  H    0.045176
   104  H    0.061839
   105  H    0.074334
   106  H    0.076617
   107  H    0.070141
   108  H    0.072023
   109  H    0.073947
   110  H    0.055442
 Sum of Mulliken charges =  -0.00000
 Mulliken charges with hydrogens summed into heavy atoms:
               1
     1  C   -0.006128
     2  C   -0.001750
     3  C   -0.008612
     4  C   -0.033279
     5  C    0.088981
     6  C   -0.013709
     7  N   -0.286512
     8  C    0.018221
     9  C    0.128456
    10  C    0.095660
    11  C   -0.012796
    12  C   -0.009256
    13  C    0.027884
    14  N   -0.291248
    15  C    0.100849
    16  C   -0.003315
    17  C   -0.000569
    18  C    0.022153
    19  C    0.089873
    20  C    0.009670
    21  C   -0.001565
    22  C    0.319585
    23  O   -0.276178
    24  O   -0.255592
    25  C    0.169094
    26  C    0.124761
    27  C    0.010976
    28  C    0.001109
    29  C   -0.024609
    30  C   -0.005089
    31  C   -0.029677
    32  C    0.093657
    33  C   -0.013690
    34  N   -0.278775
    35  C    0.015512
    36  C    0.135063
    37  C    0.093692
    38  C   -0.010676
    39  C   -0.007388
    40  C    0.040494
    41  N   -0.080394
    42  C    0.137046
    43  C    0.043012
    44  C    0.005183
    45  C    0.063917
    46  C    0.142079
    47  C    0.047742
    48  C    0.002610
    49  C    0.324972
    50  O   -0.273328
    51  O   -0.255595
    52  C    0.165382
    53  C    0.123429
    54  O   -0.461331
 Electronic spatial extent (au):  <R**2>=          35680.4162
 Charge=             -0.0000 electrons
 Dipole moment (field-independent basis, Debye):
    X=              4.2175    Y=              0.2915    Z=              0.7108  Tot=              4.2869
 Quadrupole moment (field-independent basis, Debye-Ang):
   XX=           -324.5634   YY=           -300.9130   ZZ=           -291.0457
   XY=            -17.4437   XZ=             21.7503   YZ=              6.0881
 Traceless Quadrupole moment (field-independent basis, Debye-Ang):
   XX=            -19.0560   YY=              4.5943   ZZ=             14.4617
   XY=            -17.4437   XZ=             21.7503   YZ=              6.0881
 Octapole moment (field-independent basis, Debye-Ang**2):
  XXX=            206.6810  YYY=            -21.2216  ZZZ=             21.5816  XYY=             30.5884
  XXY=            115.2616  XXZ=            -24.8203  XZZ=            -17.6684  YZZ=              4.8426
  YYZ=              0.2403  XYZ=            -41.4328
 Hexadecapole moment (field-independent basis, Debye-Ang**3):
 XXXX=         -30581.3164 YYYY=          -7366.0863 ZZZZ=          -5778.5371 XXXY=           -631.5768
 XXXZ=           1028.5870 YYYX=            -23.4327 YYYZ=            -20.5817 ZZZX=             61.9484
 ZZZY=              3.7182 XXYY=          -6593.0310 XXZZ=          -6158.8860 YYZZ=          -2158.2405
 XXYZ=            174.9902 YYXZ=             39.1071 ZZXY=            -17.0190
 N-N= 8.240762710562D+03 E-N=-2.185734177734D+04  KE= 2.279088932603D+03
 ******************************Gaussian NBO Version 3.1******************************
             N A T U R A L   A T O M I C   O R B I T A L   A N D
          N A T U R A L   B O N D   O R B I T A L   A N A L Y S I S
 ******************************Gaussian NBO Version 3.1******************************
       /RESON  / : Allow strongly delocalized NBO set
       /NLMO   / : Form Natural Localized Molecular Orbitals
       /NMR /    : Analyze NMR Sheilding Tensor 

 Analyzing the SCF density

 Job title: Pleiokomenine_C_2                                               

 Storage needed:    355564 in NPA,    438187 in NBO,   2133784 in NLMO ( 104796000 available)
 GSVD:  LWork=     -108884 too small for GESVD, short by      536270 words or      536270 for optimal perf.


 NATURAL POPULATIONS:  Natural atomic orbital occupancies 
                                                          
   NAO  Atom  No  lang   Type(AO)    Occupancy      Energy
 ----------------------------------------------------------
     1    C    1  S      Cor( 1S)     1.99993     -10.94476
     2    C    1  S      Val( 2S)     1.08039      -0.17698
     3    C    1  px     Val( 2p)     0.99654       0.09500
     4    C    1  py     Val( 2p)     0.98752       0.10867
     5    C    1  pz     Val( 2p)     0.99132       0.12026
 
     6    C    2  S      Cor( 1S)     1.99990     -10.95561
     7    C    2  S      Val( 2S)     1.07977      -0.18427
     8    C    2  px     Val( 2p)     0.96591       0.11209
     9    C    2  py     Val( 2p)     0.96940       0.12402
    10    C    2  pz     Val( 2p)     0.97273       0.13087
 
    11    C    3  S      Cor( 1S)     1.99994     -10.94753
    12    C    3  S      Val( 2S)     1.08431      -0.18311
    13    C    3  px     Val( 2p)     0.98483       0.10284
    14    C    3  py     Val( 2p)     0.98398       0.11099
    15    C    3  pz     Val( 2p)     0.98283       0.11738
 
    16    C    4  S      Cor( 1S)     1.99993     -10.94094
    17    C    4  S      Val( 2S)     1.07182      -0.17371
    18    C    4  px     Val( 2p)     1.01197       0.09172
    19    C    4  py     Val( 2p)     0.99882       0.11002
    20    C    4  pz     Val( 2p)     1.00586       0.11010
 
    21    C    5  S      Cor( 1S)     1.99985     -10.98832
    22    C    5  S      Val( 2S)     1.05912      -0.18462
    23    C    5  px     Val( 2p)     0.90378       0.10982
    24    C    5  py     Val( 2p)     0.94462       0.12733
    25    C    5  pz     Val( 2p)     0.98044       0.10341
 
    26    C    6  S      Cor( 1S)     1.99990     -10.94649
    27    C    6  S      Val( 2S)     1.08333      -0.18778
    28    C    6  px     Val( 2p)     0.98792       0.11360
    29    C    6  py     Val( 2p)     0.97893       0.11004
    30    C    6  pz     Val( 2p)     0.97511       0.11871
 
    31    N    7  S      Cor( 1S)     1.99998     -15.27046
    32    N    7  S      Val( 2S)     1.40282      -0.59525
    33    N    7  px     Val( 2p)     1.53487      -0.16623
    34    N    7  py     Val( 2p)     1.15006      -0.02328
    35    N    7  pz     Val( 2p)     1.18728      -0.02592
 
    36    C    8  S      Cor( 1S)     1.99996     -11.00812
    37    C    8  S      Val( 2S)     1.10910      -0.23328
    38    C    8  px     Val( 2p)     0.97478       0.07337
    39    C    8  py     Val( 2p)     0.95273       0.10589
    40    C    8  pz     Val( 2p)     0.94346       0.11264
 
    41    C    9  S      Cor( 1S)     1.99996     -11.05294
    42    C    9  S      Val( 2S)     1.11202      -0.25887
    43    C    9  px     Val( 2p)     0.92816       0.08175
    44    C    9  py     Val( 2p)     0.86740       0.12001
    45    C    9  pz     Val( 2p)     0.92047       0.08397
 
    46    C   10  S      Cor( 1S)     1.99993     -11.01985
    47    C   10  S      Val( 2S)     1.09645      -0.22067
    48    C   10  px     Val( 2p)     0.99755       0.08260
    49    C   10  py     Val( 2p)     0.96272       0.08423
    50    C   10  pz     Val( 2p)     0.86870       0.11685
 
    51    C   11  S      Cor( 1S)     1.99994     -10.98487
    52    C   11  S      Val( 2S)     1.10373      -0.21928
    53    C   11  px     Val( 2p)     0.99662       0.07809
    54    C   11  py     Val( 2p)     0.99044       0.07929
    55    C   11  pz     Val( 2p)     0.99401       0.08104
 
    56    C   12  S      Cor( 1S)     1.99996     -10.98240
    57    C   12  S      Val( 2S)     1.09078      -0.20369
    58    C   12  px     Val( 2p)     1.00674       0.08468
    59    C   12  py     Val( 2p)     0.99173       0.08650
    60    C   12  pz     Val( 2p)     0.98511       0.08076
 
    61    C   13  S      Cor( 1S)     1.99998     -11.00757
    62    C   13  S      Val( 2S)     1.10472      -0.23108
    63    C   13  px     Val( 2p)     0.94061       0.10512
    64    C   13  py     Val( 2p)     0.95762       0.09976
    65    C   13  pz     Val( 2p)     0.94690       0.10378
 
    66    N   14  S      Cor( 1S)     1.99999     -15.24010
    67    N   14  S      Val( 2S)     1.42207      -0.58187
    68    N   14  px     Val( 2p)     1.30191      -0.05455
    69    N   14  py     Val( 2p)     1.46550      -0.12028
    70    N   14  pz     Val( 2p)     1.09020       0.02885
 
    71    C   15  S      Cor( 1S)     1.99994     -11.01035
    72    C   15  S      Val( 2S)     1.06926      -0.19171
    73    C   15  px     Val( 2p)     1.01364       0.07233
    74    C   15  py     Val( 2p)     0.90912       0.11559
    75    C   15  pz     Val( 2p)     0.96906       0.08784
 
    76    C   16  S      Cor( 1S)     1.99997     -10.97915
    77    C   16  S      Val( 2S)     1.08098      -0.19258
    78    C   16  px     Val( 2p)     1.01613       0.08687
    79    C   16  py     Val( 2p)     0.99358       0.08708
    80    C   16  pz     Val( 2p)     0.98410       0.09023
 
    81    C   17  S      Cor( 1S)     1.99996     -10.98274
    82    C   17  S      Val( 2S)     1.08584      -0.19816
    83    C   17  px     Val( 2p)     1.01017       0.08459
    84    C   17  py     Val( 2p)     0.99572       0.08718
    85    C   17  pz     Val( 2p)     0.97667       0.08869
 
    86    C   18  S      Cor( 1S)     1.99995     -10.97653
    87    C   18  S      Val( 2S)     1.09194      -0.19693
    88    C   18  px     Val( 2p)     1.01152       0.09413
    89    C   18  py     Val( 2p)     1.00862       0.08600
    90    C   18  pz     Val( 2p)     0.96346       0.09072
 
    91    C   19  S      Cor( 1S)     1.99994     -11.00100
    92    C   19  S      Val( 2S)     1.07182      -0.18568
    93    C   19  px     Val( 2p)     0.89344       0.12363
    94    C   19  py     Val( 2p)     0.99511       0.08279
    95    C   19  pz     Val( 2p)     1.00551       0.08136
 
    96    C   20  S      Cor( 1S)     1.99992     -10.98733
    97    C   20  S      Val( 2S)     1.09987      -0.21527
    98    C   20  px     Val( 2p)     0.97887       0.08025
    99    C   20  py     Val( 2p)     0.98899       0.07956
   100    C   20  pz     Val( 2p)     1.00597       0.08243
 
   101    C   21  S      Cor( 1S)     1.99994     -11.01149
   102    C   21  S      Val( 2S)     1.11096      -0.24217
   103    C   21  px     Val( 2p)     0.97006       0.07791
   104    C   21  py     Val( 2p)     0.99358       0.06368
   105    C   21  pz     Val( 2p)     1.00965       0.06320
 
   106    C   22  S      Cor( 1S)     1.99991     -11.11431
   107    C   22  S      Val( 2S)     1.05456      -0.26305
   108    C   22  px     Val( 2p)     0.89554       0.07668
   109    C   22  py     Val( 2p)     0.86018       0.00369
   110    C   22  pz     Val( 2p)     0.78723       0.18775
 
   111    O   23  S      Cor( 1S)     1.99999     -20.10081
   112    O   23  S      Val( 2S)     1.80815      -1.06041
   113    O   23  px     Val( 2p)     1.72486      -0.27785
   114    O   23  py     Val( 2p)     1.39103      -0.17700
   115    O   23  pz     Val( 2p)     1.38622      -0.13240
 
   116    O   24  S      Cor( 1S)     1.99999     -20.21745
   117    O   24  S      Val( 2S)     1.73004      -1.03007
   118    O   24  px     Val( 2p)     1.30046      -0.13542
   119    O   24  py     Val( 2p)     1.69654      -0.30756
   120    O   24  pz     Val( 2p)     1.54014      -0.24798
 
   121    C   25  S      Cor( 1S)     1.99984     -11.04738
   122    C   25  S      Val( 2S)     1.07709      -0.22911
   123    C   25  px     Val( 2p)     0.84841       0.07660
   124    C   25  py     Val( 2p)     1.00711       0.04358
   125    C   25  pz     Val( 2p)     1.03295       0.03753
 
   126    C   26  S      Cor( 1S)     1.99992     -11.01821
   127    C   26  S      Val( 2S)     1.06510      -0.19841
   128    C   26  px     Val( 2p)     1.02601       0.05791
   129    C   26  py     Val( 2p)     1.05068       0.04649
   130    C   26  pz     Val( 2p)     0.87441       0.10186
 
   131    C   27  S      Cor( 1S)     1.99995     -10.98366
   132    C   27  S      Val( 2S)     1.08417      -0.18967
   133    C   27  px     Val( 2p)     0.97540       0.10110
   134    C   27  py     Val( 2p)     1.00016       0.08707
   135    C   27  pz     Val( 2p)     1.02749       0.08280
 
   136    C   28  S      Cor( 1S)     1.99991     -10.95672
   137    C   28  S      Val( 2S)     1.07958      -0.18506
   138    C   28  px     Val( 2p)     0.96309       0.11324
   139    C   28  py     Val( 2p)     0.97379       0.10791
   140    C   28  pz     Val( 2p)     0.96790       0.14536
 
   141    C   29  S      Cor( 1S)     1.99992     -10.94824
   142    C   29  S      Val( 2S)     1.07684      -0.17955
   143    C   29  px     Val( 2p)     1.00225       0.08877
   144    C   29  py     Val( 2p)     0.99746       0.08813
   145    C   29  pz     Val( 2p)     0.98695       0.12941
 
   146    C   30  S      Cor( 1S)     1.99994     -10.94750
   147    C   30  S      Val( 2S)     1.08445      -0.18266
   148    C   30  px     Val( 2p)     0.98443       0.10194
   149    C   30  py     Val( 2p)     0.98797       0.09767
   150    C   30  pz     Val( 2p)     0.97728       0.13395
 
   151    C   31  S      Cor( 1S)     1.99993     -10.94093
   152    C   31  S      Val( 2S)     1.07173      -0.17285
   153    C   31  px     Val( 2p)     1.01199       0.08892
   154    C   31  py     Val( 2p)     1.00794       0.09561
   155    C   31  pz     Val( 2p)     0.99670       0.12801
 
   156    C   32  S      Cor( 1S)     1.99985     -10.98990
   157    C   32  S      Val( 2S)     1.06115      -0.18712
   158    C   32  px     Val( 2p)     0.90461       0.10487
   159    C   32  py     Val( 2p)     0.94119       0.11905
   160    C   32  pz     Val( 2p)     0.97554       0.11867
 
   161    C   33  S      Cor( 1S)     1.99990     -10.95176
   162    C   33  S      Val( 2S)     1.08564      -0.19563
   163    C   33  px     Val( 2p)     0.98499       0.10958
   164    C   33  py     Val( 2p)     0.98204       0.09548
   165    C   33  pz     Val( 2p)     0.96947       0.12383
 
   166    N   34  S      Cor( 1S)     1.99998     -15.26810
   167    N   34  S      Val( 2S)     1.40098      -0.58982
   168    N   34  px     Val( 2p)     1.56306      -0.17256
   169    N   34  py     Val( 2p)     1.15825      -0.02267
   170    N   34  pz     Val( 2p)     1.14664      -0.00426
 
   171    C   35  S      Cor( 1S)     1.99996     -11.01447
   172    C   35  S      Val( 2S)     1.10316      -0.23742
   173    C   35  px     Val( 2p)     0.98811       0.05831
   174    C   35  py     Val( 2p)     0.94595       0.10584
   175    C   35  pz     Val( 2p)     0.95204       0.10444
 
   176    C   36  S      Cor( 1S)     1.99996     -11.05148
   177    C   36  S      Val( 2S)     1.11632      -0.25876
   178    C   36  px     Val( 2p)     0.92970       0.08059
   179    C   36  py     Val( 2p)     0.87736       0.12529
   180    C   36  pz     Val( 2p)     0.89699       0.09638
 
   181    C   37  S      Cor( 1S)     1.99991     -11.03504
   182    C   37  S      Val( 2S)     1.10926      -0.25190
   183    C   37  px     Val( 2p)     0.94969       0.07498
   184    C   37  py     Val( 2p)     0.99370       0.06042
   185    C   37  pz     Val( 2p)     0.87845       0.07815
 
   186    C   38  S      Cor( 1S)     1.99992     -10.98012
   187    C   38  S      Val( 2S)     1.10973      -0.21967
   188    C   38  px     Val( 2p)     0.98413       0.08495
   189    C   38  py     Val( 2p)     1.00259       0.07961
   190    C   38  pz     Val( 2p)     0.98836       0.08777
 
   191    C   39  S      Cor( 1S)     1.99996     -10.98219
   192    C   39  S      Val( 2S)     1.09072      -0.20315
   193    C   39  px     Val( 2p)     0.99084       0.08843
   194    C   39  py     Val( 2p)     1.00824       0.08245
   195    C   39  pz     Val( 2p)     0.98499       0.08119
 
   196    C   40  S      Cor( 1S)     1.99998     -11.01485
   197    C   40  S      Val( 2S)     1.09934      -0.22939
   198    C   40  px     Val( 2p)     0.96407       0.09453
   199    C   40  py     Val( 2p)     0.93419       0.10348
   200    C   40  pz     Val( 2p)     0.94272       0.10556
 
   201    N   41  S      Cor( 1S)     1.99999     -15.41969
   202    N   41  S      Val( 2S)     1.39109      -0.65849
   203    N   41  px     Val( 2p)     1.24208      -0.12318
   204    N   41  py     Val( 2p)     1.17687      -0.11036
   205    N   41  pz     Val( 2p)     1.15558      -0.11157
 
   206    C   42  S      Cor( 1S)     1.99992     -11.04034
   207    C   42  S      Val( 2S)     1.09106      -0.23707
   208    C   42  px     Val( 2p)     0.95264       0.07202
   209    C   42  py     Val( 2p)     0.97024       0.05478
   210    C   42  pz     Val( 2p)     0.93585       0.06337
 
   211    C   43  S      Cor( 1S)     1.99995     -10.99351
   212    C   43  S      Val( 2S)     1.08729      -0.20747
   213    C   43  px     Val( 2p)     1.03658       0.07292
   214    C   43  py     Val( 2p)     0.96043       0.08797
   215    C   43  pz     Val( 2p)     0.97919       0.08563
 
   216    C   44  S      Cor( 1S)     1.99994     -10.98975
   217    C   44  S      Val( 2S)     1.09161      -0.20777
   218    C   44  px     Val( 2p)     0.99940       0.08216
   219    C   44  py     Val( 2p)     1.00879       0.07866
   220    C   44  pz     Val( 2p)     0.96271       0.09118
 
   221    C   45  S      Cor( 1S)     1.99993     -10.98931
   222    C   45  S      Val( 2S)     1.09794      -0.21101
   223    C   45  px     Val( 2p)     1.01978       0.07896
   224    C   45  py     Val( 2p)     1.01324       0.08480
   225    C   45  pz     Val( 2p)     0.93363       0.08503
 
   226    C   46  S      Cor( 1S)     1.99993     -11.03488
   227    C   46  S      Val( 2S)     1.09456      -0.23623
   228    C   46  px     Val( 2p)     1.01443       0.05733
   229    C   46  py     Val( 2p)     0.82728       0.08934
   230    C   46  pz     Val( 2p)     1.01758       0.04690
 
   231    C   47  S      Cor( 1S)     1.99991     -10.97515
   232    C   47  S      Val( 2S)     1.10348      -0.20304
   233    C   47  px     Val( 2p)     0.97580       0.09892
   234    C   47  py     Val( 2p)     0.97096       0.10385
   235    C   47  pz     Val( 2p)     1.01051       0.09528
 
   236    C   48  S      Cor( 1S)     1.99994     -11.00345
[...]
   99       1.9996       -1.3543       3.3540         1.4163       0.5833
  102       1.3263       -1.2686       2.5948         0.2454       1.0808
  103       1.2464        1.4449      -0.1985        -0.5740       1.8204
  104      26.3376        0.8893      25.4483         0.5736      25.7640
  105       0.2165       -1.1633       1.3797        -0.4397       0.6562
 Sum       30.7658       -0.2754      31.0413         0.2668      30.4990

 Contributions to Isotropic shielding for atom   94 (    32.4371 ppm):
                         Standard Origin              Atomic Origin
 NLMO      Total    Paramagnetic  Diamagnetic   Paramagnetic  Diamagnetic
  102       1.1198        1.2009      -0.0810         0.1536       0.9663
  105       1.6316       -0.2611       1.8928         0.5282       1.1034
  106      26.2748        0.0315      26.2433         0.4500      25.8249
  107       1.8220        3.7070      -1.8850        -0.0256       1.8476
  108       0.0170        0.7184      -0.7014        -1.1101       1.1271
 Sum       30.8653        5.3967      25.4686        -0.0040      30.8693

 Contributions to Isotropic shielding for atom   95 (    31.1622 ppm):
                         Standard Origin              Atomic Origin
 NLMO      Total    Paramagnetic  Diamagnetic   Paramagnetic  Diamagnetic
   98      -0.1455        0.6240      -0.7695        -1.0513       0.9058
   99      -0.3674        0.0430      -0.4104        -1.2325       0.8652
  102       0.7857        2.2406      -1.4549        -0.1131       0.8987
  105       1.0823        1.0788       0.0035        -0.0891       1.1714
  106       1.9285        3.3602      -1.4318         0.0945       1.8339
  107      25.7779       -0.3253      26.1032         0.5879      25.1900
  109       0.0989        1.1260      -1.0271        -0.9103       1.0091
  116      -0.2032       -1.2764       1.0732        -0.5576       0.3543
 Sum       28.9571        6.8707      22.0863        -3.2714      32.2285

 Contributions to Isotropic shielding for atom   96 (    32.8552 ppm):
                         Standard Origin              Atomic Origin
 NLMO      Total    Paramagnetic  Diamagnetic   Paramagnetic  Diamagnetic
   94      -0.0591       -0.5723       0.5132        -1.0073       0.9481
   97       2.0531       -1.6650       3.7181         1.0980       0.9552
  102       0.2935       -1.3188       1.6122        -0.2359       0.5294
  105       1.1389        0.1137       1.0251        -0.0040       1.1428
  106      -0.0131       -1.7247       1.7117        -1.0364       1.0234
  108      26.3643        0.5172      25.8470         0.2534      26.1109
  109       1.8667        0.8137       1.0530         0.0228       1.8438
 Sum       31.6442       -3.8362      35.4804        -0.9094      32.5536

 Contributions to Isotropic shielding for atom   97 (    32.1747 ppm):
                         Standard Origin              Atomic Origin
 NLMO      Total    Paramagnetic  Diamagnetic   Paramagnetic  Diamagnetic
   97       1.1324        0.6938       0.4386         0.1604       0.9720
   98      -0.1904        0.7826      -0.9730        -1.1856       0.9952
  105       0.4804        2.9276      -2.4471        -0.5994       1.0799
  107       0.1688       -0.8436       1.0124        -0.9452       1.1140
  108       2.3370        0.1856       2.1514         0.6157       1.7213
  109      26.2823       -0.0333      26.3156         0.5473      25.7350
 Sum       30.2105        3.7126      26.4979        -1.4068      31.6173

 Contributions to Isotropic shielding for atom   98 (    32.4625 ppm):
                         Standard Origin              Atomic Origin
 NLMO      Total    Paramagnetic  Diamagnetic   Paramagnetic  Diamagnetic
   71      -1.1180        0.3178      -1.4357        -2.1181       1.0001
   80      -0.0609        1.2871      -1.3480        -1.1535       1.0926
   85       1.8858       -1.4765       3.3623         1.2592       0.6267
   89      -0.0867        0.1020      -0.1887        -1.0260       0.9392
  110       0.6326        1.1990      -0.5664        -0.1747       0.8073
  111      26.1284        0.1086      26.0198         0.6413      25.4871
  112       1.7295        3.1525      -1.4230        -0.1830       1.9125
  124       0.0317       -1.0351       1.0669        -0.5848       0.6166
 Sum       29.1426        3.6555      25.4871        -3.3395      32.4821

 Contributions to Isotropic shielding for atom   99 (    30.5872 ppm):
                         Standard Origin              Atomic Origin
 NLMO      Total    Paramagnetic  Diamagnetic   Paramagnetic  Diamagnetic
   83      -0.3453        1.1429      -1.4882        -0.7460       0.4007
   85       1.1242       -0.2151       1.3393         0.3165       0.8077
   87      -0.2544        0.1871      -0.4415        -1.1036       0.8492
   89      -0.1682       -0.1460      -0.0222        -1.0478       0.8796
  110       0.5551        2.0363      -1.4812        -0.1655       0.7206
  111       1.5918        2.8943      -1.3025        -0.3195       1.9113
  112      25.6608       -0.1197      25.7805         0.6926      24.9682
  118       0.2685       -0.8811       1.1496        -0.5497       0.8182
  122       1.0971       -0.9108       2.0078         0.0734       1.0237
  124       0.1736       -1.2754       1.4490        -0.5352       0.7088
  125       0.1950       -2.2968       2.4918        -0.6237       0.8187
  193      -0.5076        0.8207      -1.3282         0.6054      -1.1130
  194      -0.7463       -1.0600       0.3136        -0.7184      -0.0279
  195       0.0231        0.1196      -0.0965         1.0599      -1.0368
 Sum       28.6673        0.2960      28.3713        -3.0617      31.7289

 Contributions to Isotropic shielding for atom  100 (    31.8080 ppm):
                         Standard Origin              Atomic Origin
 NLMO      Total    Paramagnetic  Diamagnetic   Paramagnetic  Diamagnetic
   71      -0.1816       -0.0913      -0.0902        -1.3215       1.1400
   84      -0.2436        0.4564      -0.7000        -1.0627       0.8191
  100       1.7956       -1.7258       3.5213         1.3423       0.4533
  110       1.3226       -1.4765       2.7991         0.4928       0.8298
  113      26.3268        0.9140      25.4129         0.6352      25.6916
  114       1.1410        1.5878      -0.4468        -0.6995       1.8405
 Sum       30.1608       -0.3354      30.4963        -0.6135      30.7743

 Contributions to Isotropic shielding for atom  101 (    30.9564 ppm):
                         Standard Origin              Atomic Origin
 NLMO      Total    Paramagnetic  Diamagnetic   Paramagnetic  Diamagnetic
  100      -0.3988        1.1733      -1.5721        -1.1659       0.7671
  101      -0.0696        0.5893      -0.6589        -1.0843       1.0147
  110       0.4303        1.7737      -1.3434        -0.5528       0.9831
  112       0.0975        0.3603      -0.2628        -0.9307       1.0282
  113       1.6775        0.2260       1.4515        -0.0124       1.6899
  114      25.9794        0.3642      25.6151         1.1161      24.8633
  195       0.3224       -0.9976       1.3201         1.1517      -0.8293
 Sum       28.0386        3.4892      24.5494        -1.4783      29.5170

 Contributions to Isotropic shielding for atom  102 (    30.0957 ppm):
                         Standard Origin              Atomic Origin
 NLMO      Total    Paramagnetic  Diamagnetic   Paramagnetic  Diamagnetic
   87       0.3445       -0.7664       1.1109         0.2231       0.1214
   89      -0.3181        0.0472      -0.3653        -1.2080       0.8899
   97      -0.2670        1.3364      -1.6035        -1.0796       0.8126
   98       1.4558       -0.2667       1.7225         0.5663       0.8895
  107      -0.2021       -1.2798       1.0778        -0.7649       0.5629
  115       0.1885        2.4233      -2.2348        -0.7008       0.8893
  116      25.3649       -0.2008      25.5657         0.7232      24.6417
  117       1.6283        2.8737      -1.2454        -0.2881       1.9164
  118      -0.0987        0.0581      -0.1568        -1.2538       1.1551
  120       0.4458       -1.6788       2.1246        -0.4409       0.8867
  121       0.6271       -2.2467       2.8738        -0.9452       1.5722
  191      -0.6543        1.0582      -1.7125         0.1901      -0.8445
  195      -0.3304        0.7819      -1.1123         0.6416      -0.9720
 Sum       28.1843        2.1396      26.0447        -4.3368      32.5211

 Contributions to Isotropic shielding for atom  103 (    31.7649 ppm):
                         Standard Origin              Atomic Origin
 NLMO      Total    Paramagnetic  Diamagnetic   Paramagnetic  Diamagnetic
   86      -0.1081        0.3450      -0.4531        -1.0204       0.9123
   87       0.4245       -0.9181       1.3426         0.1180       0.3065
   94      -0.2221        1.0123      -1.2344        -1.1807       0.9586
   97      -0.1135        0.9853      -1.0987        -0.7315       0.6181
   98       1.8729       -1.0739       2.9468         0.8931       0.9798
  115       0.7420        1.6306      -0.8887        -0.3531       1.0950
  116       1.6765        2.8530      -1.1765        -0.3622       2.0387
  117      26.6152       -0.1140      26.7292         0.5302      26.0850
  119      -0.1788       -0.9328       0.7539        -1.3007       1.1219
  120       0.1525       -0.9344       1.0869        -0.6239       0.7764
  121       0.3522       -1.1484       1.5006        -0.8516       1.2039
 Sum       31.2133        1.7047      29.5086        -4.8828      36.0962

 Contributions to Isotropic shielding for atom  104 (    31.3657 ppm):
                         Standard Origin              Atomic Origin
 NLMO      Total    Paramagnetic  Diamagnetic   Paramagnetic  Diamagnetic
   81      -0.4926        1.1440      -1.6366        -1.1946       0.7020
   86      -0.2503        1.1248      -1.3751        -1.3960       1.1457
   87       1.8680       -0.5331       2.4012         0.8715       0.9965
   98       0.2631       -0.7792       1.0423         0.1531       0.1099
  115       1.5112        0.9169       0.5943         0.2820       1.2292
  117      -0.2450        0.0409      -0.2859        -1.3945       1.1495
  118       0.4214        4.5867      -4.1653        -0.7575       1.1789
  119      25.9542       -0.5397      26.4939         0.2367      25.7174
  121       0.3413       -0.9199       1.2612        -0.6385       0.9799
  122       0.6293       -1.4139       2.0431        -0.4412       1.0705
  126       0.1440       -0.9217       1.0656        -0.5225       0.6665
  127      -0.2673       -2.2174       1.9501        -0.7538       0.4866
 Sum       29.8773        0.4884      29.3889        -5.5552      35.4325

 Contributions to Isotropic shielding for atom  105 (    30.5910 ppm):
                         Standard Origin              Atomic Origin
 NLMO      Total    Paramagnetic  Diamagnetic   Paramagnetic  Diamagnetic
  120      -0.5696        0.2610      -0.8306        -1.2168       0.6471
  121      -0.0790        0.8314      -0.9105        -1.1181       1.0391
  122      -0.7220        0.5045      -1.2264        -0.7586       0.0367
  123       1.6654       -1.6277       3.2931        -0.4274       2.0928
  124      26.0050        0.4299      25.5751         0.7201      25.2849
  125       1.1025        1.3717      -0.2692        -0.8935       1.9959
  126       0.6464        3.0760      -2.4296        -1.3343       1.9807
  193       0.9412       -0.5482       1.4894         1.4245      -0.4833
 Sum       28.9898        4.2986      24.6913        -3.6041      32.5940

 Contributions to Isotropic shielding for atom  106 (    30.4868 ppm):
                         Standard Origin              Atomic Origin
 NLMO      Total    Paramagnetic  Diamagnetic   Paramagnetic  Diamagnetic
  120      -0.9425        0.5538      -1.4964        -1.8433       0.9008
  121      -0.2113        1.0772      -1.2885        -1.7831       1.5718
  122      -1.8032        1.7641      -3.5673        -2.6387       0.8355
  123       2.3665       -3.4414       5.8079         0.9497       1.4168
  124       1.5181        2.0289      -0.5108        -0.5159       2.0340
  125      26.2651        0.8770      25.3882         1.1286      25.1365
  126       0.9117        2.7840      -1.8722        -0.9566       1.8683
  191       0.2880       -1.0284       1.3165         1.0422      -0.7542
  193       1.0220       -0.6347       1.6567         1.0704      -0.0484
 Sum       29.4144        3.9804      25.4340        -3.5466      32.9611

 Contributions to Isotropic shielding for atom  107 (    30.5505 ppm):
                         Standard Origin              Atomic Origin
 NLMO      Total    Paramagnetic  Diamagnetic   Paramagnetic  Diamagnetic
  120      -0.9573        0.5772      -1.5345        -1.8969       0.9395
  121      -0.4913        1.6119      -2.1032        -1.9997       1.5084
  122      -2.1522        1.6487      -3.8008        -2.9145       0.7624
  123       1.4463       -0.1379       1.5841        -0.0386       1.4849
  124       1.3141        3.7452      -2.4311        -0.7177       2.0318
  125       1.0961        2.4242      -1.3282        -0.7749       1.8709
  126      26.5921        0.6668      25.9252         1.2950      25.2971
  191       0.4546       -1.3794       1.8341         1.2175      -0.7629
  192       0.8017        0.7716       0.0301         1.0530      -0.2513
  193       1.4642       -1.4364       2.9006         1.5282      -0.0640
  194       0.3180        1.2317      -0.9137        -0.1397       0.4576
 Sum       29.8861        9.7235      20.1626        -3.3882      33.2743

 Contributions to Isotropic shielding for atom  108 (    31.2197 ppm):
                         Standard Origin              Atomic Origin
 NLMO      Total    Paramagnetic  Diamagnetic   Paramagnetic  Diamagnetic
   76      -0.4045       -0.0814      -0.3231        -1.2500       0.8455
   81      -0.3689        0.7372      -1.1061        -1.1025       0.7336
   82       1.1709        0.1368       1.0341        -0.0472       1.2181
   87      -0.2040        0.8458      -1.0498        -1.1105       0.9065
  122       0.6201       -0.5415       1.1615        -0.2549       0.8749
  127      26.0643        0.1986      25.8657         0.6323      25.4321
  128       1.5218        3.6834      -2.1616        -0.4677       1.9895
  129       1.7979        0.4113       1.3866        -0.0175       1.8154
 Sum       30.1975        5.3901      24.8074        -3.6181      33.8156

 Contributions to Isotropic shielding for atom  109 (    30.5938 ppm):
                         Standard Origin              Atomic Origin
 NLMO      Total    Paramagnetic  Diamagnetic   Paramagnetic  Diamagnetic
   75      -0.5264        0.5098      -1.0362        -1.2387       0.7122
   76      -0.7458        0.1417      -0.8875        -2.1051       1.3592
   79      -0.4311        0.6227      -1.0537        -1.0648       0.6338
   82       1.1025        0.6055       0.4970        -0.1207       1.2232
  127       1.5679        3.6385      -2.0706        -0.4020       1.9699
  128      26.0128        0.1202      25.8926         0.6884      25.3244
  129       1.7625        0.7968       0.9657        -0.0389       1.8014
 Sum       28.7425        6.4352      22.3073        -4.2817      33.0242

 Contributions to Isotropic shielding for atom  110 (    31.7842 ppm):
                         Standard Origin              Atomic Origin
 NLMO      Total    Paramagnetic  Diamagnetic   Paramagnetic  Diamagnetic
   76      -0.5304       -0.2759      -0.2545        -1.7142       1.1838
   82       1.9384       -2.9639       4.9023         1.1678       0.7706
   86      -0.1749        0.5466      -0.7216        -1.2529       1.0780
  127       1.8587        1.2225       0.6362        -0.0434       1.9021
  128       1.8320        1.7743       0.0576        -0.0666       1.8985
  129      26.3880        0.8159      25.5721         0.6802      25.7078
 Sum       31.3118        1.1195      30.1923        -1.2290      32.5408
 
 1\1\GINC-PCSN02\SP\RHF\STO-3G\C45H56N4O5\ABENIDD\30-May-2024\0\\# nmr=
 giao hf/sto-3g pop=nbo geom=connectivity\\Pleiokomenine_C_2\\0,1\C,0,0
 .,0.,0.\C,0,1.4024,0.,0.\C,0,2.0893,1.2323,0.\C,0,1.3998,2.4522,-0.047
 4\C,0,0.0173,2.4401,-0.1079\C,0,-0.6668,1.2137,-0.068\N,0,-0.8673,3.54
 45,-0.2256\C,0,-2.1507,1.4829,-0.0565\C,0,-2.1064,2.9063,-0.7391\C,0,-
 3.1077,0.5771,-0.8454\C,0,-1.9735,2.7187,-2.3149\C,0,-3.1829,1.9741,-2
 .8917\C,0,-4.0539,1.4579,-1.7309\N,0,-3.7649,-0.245,0.1714\C,0,-4.9588
 ,-0.9471,-0.2757\C,0,-5.9339,-0.1068,-1.0995\C,0,-5.2219,0.6062,-2.248
 8\C,0,-2.6083,1.3462,1.4153\C,0,-3.9076,0.5514,1.3806\C,0,-4.582,2.742
 3,-1.0051\C,0,-3.4246,3.6797,-0.5602\C,0,-3.6794,4.3011,0.8017\O,0,-4.
 5129,3.9089,1.6088\O,0,-2.9064,5.4092,0.978\C,0,-3.0628,6.0352,2.2513\
 C,0,-0.334,4.7573,-0.8255\C,0,2.1785,-1.3033,0.0422\C,0,1.6692,-2.3704
 ,-0.9086\C,0,1.4396,-2.0688,-2.2597\C,0,1.4292,-3.68,-0.4382\C,0,0.911
 4,-4.6749,-1.2778\C,0,0.6202,-4.3509,-2.5892\C,0,0.9092,-3.0552,-3.073
 8\N,0,-0.0132,-5.1542,-3.579\C,0,0.5831,-3.0332,-4.5504\C,0,-0.5492,-4
 .1168,-4.4961\C,0,0.0067,-1.8102,-5.2429\C,0,-1.8589,-3.482,-3.787\C,0
 ,-2.2837,-2.1646,-4.4412\C,0,-1.449,-1.9487,-5.7139\N,0,0.929,-1.5265,
 -6.4159\C,0,0.666,-0.133,-6.8796\C,0,-0.7858,-0.0612,-7.3955\C,0,-1.84
 31,-0.6277,-6.4195\C,0,1.9667,-3.2271,-5.2328\C,0,2.2605,-1.8447,-5.84
 52\C,0,-1.6829,-3.2393,-6.5733\C,0,-1.0909,-4.5241,-5.8859\C,0,-0.225,
 -5.3274,-6.8432\O,0,-0.4697,-5.4404,-8.0406\O,0,0.7367,-6.0411,-6.2034
 \C,0,1.5451,-6.8422,-7.0638\C,0,-0.8303,-6.2681,-3.1341\O,0,0.7795,-2.
 3576,-7.4949\H,0,-0.5637,-0.9284,0.0512\H,0,3.1768,1.2489,0.0358\H,0,1
 .9561,3.3825,-0.0452\H,0,-2.5483,-0.1056,-1.4993\H,0,-1.0602,2.1735,-2
 .5845\H,0,-1.8866,3.693,-2.8129\H,0,-3.7596,2.6429,-3.5431\H,0,-2.838,
 1.1498,-3.527\H,0,-4.6321,-1.793,-0.8947\H,0,-5.4823,-1.3959,0.5773\H,
 0,-6.7148,-0.7583,-1.5092\H,0,-6.4431,0.6181,-0.4551\H,0,-4.8491,-0.14
 75,-2.9549\H,0,-5.9392,1.2244,-2.8016\H,0,-1.8866,0.759,2.0019\H,0,-2.
 7017,2.2912,1.949\H,0,-3.9969,-0.0847,2.2677\H,0,-4.7784,1.2087,1.3629
 \H,0,-5.2438,2.4855,-0.1777\H,0,-5.2227,3.306,-1.6985\H,0,-3.4372,4.53
 65,-1.2515\H,0,-4.0793,6.4251,2.3623\H,0,-2.8248,5.334,3.0574\H,0,-2.3
 624,6.8732,2.3047\H,0,0.1614,4.559,-1.7827\H,0,0.3855,5.233,-0.1505\H,
 0,-1.1312,5.4846,-1.0067\H,0,3.2333,-1.1243,-0.2022\H,0,2.1515,-1.6691
 ,1.0764\H,0,1.6552,-1.0782,-2.6464\H,0,1.6279,-3.9292,0.6026\H,0,0.719
 7,-5.6662,-0.8841\H,0,0.1067,-0.937,-4.5809\H,0,-1.7282,-3.3084,-2.711
 9\H,0,-2.6892,-4.1992,-3.8483\H,0,-3.3571,-2.1854,-4.6659\H,0,-2.1333,
 -1.3398,-3.7332\H,0,1.3876,0.0822,-7.6746\H,0,0.84,0.5403,-6.0339\H,0,
 -1.0329,0.9798,-7.6338\H,0,-0.8608,-0.6155,-8.3394\H,0,-2.012,0.1422,-
 5.6548\H,0,-2.7982,-0.7478,-6.9448\H,0,2.7834,-3.5253,-4.5652\H,0,1.92
 92,-3.97,-6.0295\H,0,2.5035,-1.0797,-5.101\H,0,3.0015,-1.8658,-6.6494\
 H,0,-1.3363,-3.1173,-7.6021\H,0,-2.7672,-3.388,-6.6839\H,0,-1.9357,-5.
 2107,-5.7205\H,0,2.3227,-7.3126,-6.4557\H,0,2.0304,-6.2239,-7.8257\H,0
 ,0.9437,-7.6303,-7.5272\H,0,-1.3115,-6.7535,-3.9888\H,0,-0.2112,-7.028
 7,-2.6464\H,0,-1.6128,-5.953,-2.4354\\Version=ES64L-G16RevB.01\State=1
 -A\HF=-2300.1972855\RMSD=3.945e-09\Dipole=-0.282595,1.3846462,0.920588
 6\Quadrupole=8.6167369,14.8710617,-23.4877987,3.2358009,4.6483729,-12.
 5921263\PG=C01 [X(C45H56N4O5)]\\@


 MARY HAD A LITTLE LAMB
      HIS FEET WERE BLACK AS SOOT,
           AND EVERYWHERE THAT MARY WENT
                HIS SOOTY FOOT HE PUT.

                    -- NONAME
 Job cpu time:       0 days  0 hours 12 minutes 31.8 seconds.
 Elapsed time:       0 days  0 hours  2 minutes  4.7 seconds.
 File lengths (MBytes):  RWF=     67 Int=      0 D2E=      0 Chk=     10 Scr=      1
 Normal termination of Gaussian 16 at Thu May 30 09:51:21 2024.
