 Entering Gaussian System, Link 0=g16
 Input=2_pleiokomenine_2a_c_19.gjf
 Output=2_pleiokomenine_2a_c_19.log
 Initial command:
 /opt/gaussian/g16/l1.exe "/data/abenidd/Elvis/pleiokomenine_C/NMR_HF/2a/2_pleiokomenine_2a_c_19/Gau-27664.inp" -scrdir="/data/abenidd/Elvis/pleiokomenine_C/NMR_HF/2a/2_pleiokomenine_2a_c_19/"
 Entering Link 1 = /opt/gaussian/g16/l1.exe PID=     27666.
  
 Copyright (c) 1988-2017, Gaussian, Inc.  All Rights Reserved.
  
 This is part of the Gaussian(R) 16 program.  It is based on
 the Gaussian(R) 09 system (copyright 2009, Gaussian, Inc.),
 the Gaussian(R) 03 system (copyright 2003, Gaussian, Inc.),
 the Gaussian(R) 98 system (copyright 1998, Gaussian, Inc.),
 the Gaussian(R) 94 system (copyright 1995, Gaussian, Inc.),
 the Gaussian 92(TM) system (copyright 1992, Gaussian, Inc.),
 the Gaussian 90(TM) system (copyright 1990, Gaussian, Inc.),
 the Gaussian 88(TM) system (copyright 1988, Gaussian, Inc.),
 the Gaussian 86(TM) system (copyright 1986, Carnegie Mellon
 University), and the Gaussian 82(TM) system (copyright 1983,
 Carnegie Mellon University). Gaussian is a federally registered
 trademark of Gaussian, Inc.
  
 This software contains proprietary and confidential information,
 including trade secrets, belonging to Gaussian, Inc.
  
 This software is provided under written license and may be
 used, copied, transmitted, or stored only in accord with that
 written license.
  
 The following legend is applicable only to US Government
 contracts under FAR:
  
                    RESTRICTED RIGHTS LEGEND
  
 Use, reproduction and disclosure by the US Government is
 subject to restrictions as set forth in subparagraphs (a)
 and (c) of the Commercial Computer Software - Restricted
 Rights clause in FAR 52.227-19.
  
 Gaussian, Inc.
 340 Quinnipiac St., Bldg. 40, Wallingford CT 06492
  
  
 ---------------------------------------------------------------
 Warning -- This program may not be used in any manner that
 competes with the business of Gaussian, Inc. or will provide
 assistance to any competitor of Gaussian, Inc.  The licensee
 of this program is prohibited from giving any competitor of
 Gaussian, Inc. access to this program.  By using this program,
 the user acknowledges that Gaussian, Inc. is engaged in the
 business of creating and licensing software in the field of
 computational chemistry and represents and warrants to the
 licensee that it is not a competitor of Gaussian, Inc. and that
 it will not use this program in any manner prohibited above.
 ---------------------------------------------------------------
  

 Cite this work as:
 Gaussian 16, Revision B.01,
 M. J. Frisch, G. W. Trucks, H. B. Schlegel, G. E. Scuseria, 
 M. A. Robb, J. R. Cheeseman, G. Scalmani, V. Barone, 
 G. A. Petersson, H. Nakatsuji, X. Li, M. Caricato, A. V. Marenich, 
 J. Bloino, B. G. Janesko, R. Gomperts, B. Mennucci, H. P. Hratchian, 
 J. V. Ortiz, A. F. Izmaylov, J. L. Sonnenberg, D. Williams-Young, 
 F. Ding, F. Lipparini, F. Egidi, J. Goings, B. Peng, A. Petrone, 
 T. Henderson, D. Ranasinghe, V. G. Zakrzewski, J. Gao, N. Rega, 
 G. Zheng, W. Liang, M. Hada, M. Ehara, K. Toyota, R. Fukuda, 
 J. Hasegawa, M. Ishida, T. Nakajima, Y. Honda, O. Kitao, H. Nakai, 
 T. Vreven, K. Throssell, J. A. Montgomery, Jr., J. E. Peralta, 
 F. Ogliaro, M. J. Bearpark, J. J. Heyd, E. N. Brothers, K. N. Kudin, 
 V. N. Staroverov, T. A. Keith, R. Kobayashi, J. Normand, 
 K. Raghavachari, A. P. Rendell, J. C. Burant, S. S. Iyengar, 
 J. Tomasi, M. Cossi, J. M. Millam, M. Klene, C. Adamo, R. Cammi, 
 J. W. Ochterski, R. L. Martin, K. Morokuma, O. Farkas, 
 J. B. Foresman, and D. J. Fox, Gaussian, Inc., Wallingford CT, 2016.
 
 ******************************************
 Gaussian 16:  ES64L-G16RevB.01 20-Dec-2017
                30-May-2024 
 ******************************************
 %nprocshared=8
 Will use up to    8 processors via shared memory.
 ----------------------------------------------
 # nmr=giao hf/sto-3g pop=nbo geom=connectivity
 ----------------------------------------------
 1/38=1,57=2,172=1/1;
 2/12=2,17=6,18=5,40=1/2;
 3/6=3,11=9,25=1,30=1/1,2,3,8;
 4//1;
 5/5=2,38=5/2;
 8/6=1,10=90,11=11/1;
 10/13=100,45=16/2;
 6/7=2,8=2,9=2,10=2,28=1,40=1,64=1/1,7;
 99/9=1/99;
 -----------------
 Pleiokomenine_C_2
 -----------------
 Symbolic Z-matrix:
 Charge =  0 Multiplicity = 1
 C                     0.        0.        0. 
 C                     1.4016    0.        0. 
 C                     2.0858    1.2336    0. 
 C                     1.3934    2.4532   -0.0298 
 C                     0.0102    2.4402   -0.0729 
 C                    -0.6699    1.2124   -0.0418 
 N                    -0.8792    3.5443   -0.1623 
 C                    -2.154     1.4746   -0.0052 
 C                    -2.1241    2.9078   -0.6676 
 C                    -3.1202    0.574    -0.7903 
 C                    -2.019     2.7419   -2.2471 
 C                    -3.2381    2.0026   -2.8124 
 C                    -4.0865    1.4671   -1.6425 
 N                    -3.7511   -0.2734    0.2272 
 C                    -4.9566   -0.9639   -0.2125 
 C                    -5.9506   -0.1084   -0.9964 
 C                    -5.2645    0.6232   -2.1494 
 C                    -2.5868    1.3141    1.4719 
 C                    -3.8808    0.5105    1.4471 
 C                    -4.6033    2.7399   -0.8881 
 C                    -3.4406    3.6752   -0.4552 
 C                    -3.6706    4.2809    0.9181 
 O                    -4.4798    3.8712    1.7413 
 O                    -2.9069    5.3967    1.0865 
 C                    -3.0413    6.01      2.3683 
 C                    -0.3551    4.7597   -0.7663 
 C                     2.1713   -1.3033    0.0421 
 C                     1.8119   -2.2594   -1.0768 
 C                     0.8382   -3.2476   -0.8716 
 C                     2.3953   -2.108    -2.3539 
 C                     2.034    -2.9363   -3.4243 
 C                     1.0775   -3.9116   -3.2159 
 C                     0.4697   -4.0402   -1.9461 
 N                     0.5861   -4.8783   -4.1362 
 C                    -0.6486   -5.0511   -2.0755 
 C                     0.0077   -5.895    -3.2229 
 C                    -1.0249   -6.0123   -0.962 
 C                     1.2392   -6.746    -2.6139 
 C                     0.8179   -7.5725   -1.3952 
 C                    -0.7095   -7.4899   -1.2397 
 N                    -2.5128   -5.8132   -0.728 
 C                    -2.8532   -6.4103    0.5963 
 C                    -2.5868   -7.928     0.5248 
 C                    -1.1899   -8.3108   -0.0175 
 C                    -1.9176   -4.1634   -2.2398 
 C                    -2.6606   -4.3479   -0.9033 
 C                    -1.28     -7.9795   -2.6158 
 C                    -0.913    -7.0004   -3.7902 
 C                    -2.133    -6.6334   -4.6201 
 O                    -3.0457   -7.418    -4.861 
 O                    -2.0192   -5.4134   -5.2052 
 C                    -3.128    -5.0489   -6.0255 
 C                     1.4329   -5.2514   -5.2536 
 O                    -3.3359   -6.3834   -1.6644 
 H                    -0.5676   -0.924     0.0391 
 H                     3.1734    1.2532    0.0226 
 H                     1.9484    3.3842   -0.0279 
 H                    -2.5699   -0.094    -1.467 
 H                    -1.9429    3.7228   -2.7338 
 H                    -1.1096    2.2023   -2.5397 
 H                    -3.8287    2.6803   -3.4417 
 H                    -2.9038    1.1886   -3.4676 
 H                    -4.6432   -1.7934   -0.8586 
 H                    -5.4607   -1.4338    0.6407 
 H                    -6.7413   -0.7522   -1.3992 
 H                    -6.4441    0.6048   -0.3274 
 H                    -4.9068   -0.1186   -2.8754 
 H                    -5.994     1.2495   -2.6765 
 H                    -2.6779    2.2506    2.0204 
 H                    -1.8521    0.724     2.039 
 H                    -3.9526   -0.1362    2.3283 
 H                    -4.7561    1.162     1.4505 
 H                    -5.2467    2.4703   -0.0504 
 H                    -5.2603    3.3108   -1.5602 
 H                    -3.4686    4.5395   -1.1366 
 H                    -2.3504    6.8563    2.4127 
 H                    -2.7757    5.3052    3.1626 
 H                    -4.0598    6.3859    2.5065 
 H                     0.1235    4.5662   -1.7329 
 H                     0.3763    5.2317   -0.1015 
 H                    -1.155     5.4883   -0.9292 
 H                     1.9982   -1.7812    1.0152 
 H                     3.2514   -1.1115    0.0001 
 H                     0.3486   -3.3462    0.0914 
 H                     3.1304   -1.3233   -2.5228 
 H                     2.4962   -2.7959   -4.3943 
 H                    -0.5409   -5.6914   -0.0274 
 H                     2.0962   -6.1223   -2.3316 
 H                     1.6345   -7.4194   -3.3871 
 H                     1.1508   -8.611    -1.5132 
 H                     1.3217   -7.1875   -0.4993 
 H                    -3.9104   -6.1947    0.7832 
 H                    -2.238    -5.9158    1.3549 
 H                    -3.3426   -8.3965   -0.118 
 H                    -2.7218   -8.3652    1.5208 
 H                    -1.1691   -9.3828   -0.2481 
 H                    -0.4781   -8.1635    0.8063 
 H                    -1.7295   -3.0988   -2.4215 
 H                    -2.5552   -4.509    -3.0536 
 H                    -3.7242   -4.0992   -0.9508 
 H                    -2.1728   -3.8513   -0.0587 
 H                    -2.3504   -8.192    -2.5663 
 H                    -0.8348   -8.959    -2.845 
 H                    -0.3196   -7.5826   -4.5123 
 H                    -4.0584   -5.0655   -5.449 
 H                    -2.963    -4.0288   -6.3831 
 H                    -3.1954   -5.7132   -6.8926 
 H                     1.5711   -4.4031   -5.9325 
 H                     0.9648   -6.0499   -5.8376 
 H                     2.4177   -5.6008   -4.9251 
 
 Stoichiometry    C45H56N4O5
 Framework group  C1[X(C45H56N4O5)]
 Deg. of freedom   324
 Full point group                 C1      NOp   1
 Largest Abelian subgroup         C1      NOp   1
 Largest concise Abelian subgroup C1      NOp   1
                         Standard orientation:                         
 ---------------------------------------------------------------------
 Center     Atomic      Atomic             Coordinates (Angstroms)
 Number     Number       Type             X           Y           Z
 ---------------------------------------------------------------------
      1          6           0        1.835932    1.770370   -0.950081
      2          6           0        1.610662    3.145021   -1.105232
      3          6           0        2.669805    4.043884   -0.859956
      4          6           0        3.928717    3.591910   -0.437355
      5          6           0        4.126827    2.235624   -0.246283
      6          6           0        3.081096    1.339891   -0.520335
      7          7           0        5.291510    1.572867    0.225236
      8          6           0        3.578207   -0.069560   -0.322926
      9          6           0        4.749076    0.266233    0.682081
     10          6           0        2.663555   -1.133975    0.302722
     11          6           0        4.139543    0.438315    2.142303
     12          6           0        3.478997   -0.858215    2.627092
     13          6           0        3.430350   -1.862999    1.459509
     14          7           0        2.242345   -1.973429   -0.823922
     15          6           0        1.660485   -3.255532   -0.448413
     16          6           0        2.414926   -4.022976    0.636144
     17          6           0        2.680165   -3.142221    1.856513
     18          6           0        3.902844   -0.616861   -1.733590
     19          6           0        3.342394   -2.032823   -1.775680
     20          6           0        4.927634   -2.182396    1.124326
     21          6           0        5.746501   -0.896632    0.823779
     22          6           0        6.736073   -1.096984   -0.310386
     23          8           0        6.704777   -2.018218   -1.117024
     24          8           0        7.717219   -0.152528   -0.266091
     25          6           0        8.673406   -0.251943   -1.321096
     26          6           0        6.192634    2.349450    1.062844
     27          6           0        0.263393    3.656575   -1.569968
     28          6           0       -0.893402    3.198100   -0.705758
     29          6           0       -1.616878    2.047679   -1.051953
     30          6           0       -1.195734    3.878808    0.494031
     31          6           0       -2.217735    3.439012    1.345188
     32          6           0       -2.930868    2.307640    0.997377
     33          6           0       -2.605018    1.607673   -0.186776
     34          7           0       -4.021746    1.705218    1.682948
     35          6           0       -3.419004    0.332348   -0.201929
     36          6           0       -4.640567    0.892562    0.606382
     37          6           0       -3.962521   -0.284474   -1.478452
     38          6           0       -5.477129    1.904804   -0.335533
     39          6           0       -5.856756    1.262088   -1.672928
     40          6           0       -5.490119   -0.230499   -1.631510
     41          7           0       -3.470184   -1.721757   -1.486385
     42          6           0       -3.616295   -2.249426   -2.874329
     43          6           0       -5.117179   -2.263923   -3.230181
     44          6           0       -5.853975   -0.930366   -2.964262
     45          6           0       -2.419045   -0.737949    0.327140
     46          6           0       -2.106056   -1.585049   -0.920571
     47          6           0       -6.241774   -0.793638   -0.375835
     48          6           0       -5.696586   -0.178790    0.964790
     49          6           0       -5.381464   -1.255202    1.991366
     50          8           0       -6.044763   -2.280054    2.119291
     51          8           0       -4.404826   -0.881373    2.857461
     52          6           0       -4.107299   -1.849790    3.861869
     53          6           0       -4.819470    2.537323    2.563910
     54          8           0       -4.136416   -2.575262   -0.645475
     55          1           0        1.062242    1.040575   -1.165203
     56          1           0        2.519808    5.112766   -0.996925
     57          1           0        4.722368    4.308054   -0.258344
     58          1           0        1.755488   -0.674932    0.717054
     59          1           0        4.922767    0.724806    2.855968
     60          1           0        3.401331    1.249036    2.181875
     61          1           0        4.042715   -1.272604    3.472437
     62          1           0        2.473206   -0.639337    3.006719
     63          1           0        0.645872   -3.060589   -0.079235
     64          1           0        1.531368   -3.890543   -1.333265
     65          1           0        1.820828   -4.891958    0.942496
     66          1           0        3.354578   -4.417478    0.234673
     67          1           0        1.719521   -2.882594    2.320248
     68          1           0        3.245668   -3.708779    2.605830
     69          1           0        4.956229   -0.567860   -2.005916
     70          1           0        3.381839   -0.041041   -2.512429
     71          1           0        2.983958   -2.278263   -2.781250
     72          1           0        4.101453   -2.771190   -1.512512
     73          1           0        5.006462   -2.916059    0.321884
     74          1           0        5.389009   -2.678932    1.990281
     75          1           0        6.382279   -0.721491    1.705378
     76          1           0        9.376659    0.579165   -1.219934
     77          1           0        8.181724   -0.171718   -2.295781
     78          1           0        9.231448   -1.190157   -1.243092
     79          1           0        5.665870    2.844090    1.886656
     80          1           0        6.705668    3.112016    0.467044
     81          1           0        6.966801    1.709763    1.497240
     82          1           0        0.106548    3.337159   -2.608548
     83          1           0        0.259991    4.753978   -1.599334
     84          1           0       -1.366167    1.488533   -1.947106
     85          1           0       -0.616765    4.755346    0.778864
     86          1           0       -2.426357    3.979446    2.260966
     87          1           0       -3.478550    0.190525   -2.344973
     88          1           0       -4.945955    2.842701   -0.538874
     89          1           0       -6.392003    2.216918    0.187112
     90          1           0       -6.926998    1.404243   -1.866840
     91          1           0       -5.325887    1.770785   -2.487840
     92          1           0       -3.190528   -3.258273   -2.880468
     93          1           0       -3.037404   -1.602587   -3.541382
     94          1           0       -5.616910   -3.051162   -2.651872
     95          1           0       -5.235263   -2.539900   -4.284353
     96          1           0       -6.936844   -1.093393   -3.024340
     97          1           0       -5.601685   -0.257018   -3.794898
     98          1           0       -1.490421   -0.345396    0.757637
     99          1           0       -2.868437   -1.375777    1.088367
    100          1           0       -1.712507   -2.579272   -0.692556
    101          1           0       -1.480991   -1.068198   -1.655465
    102          1           0       -6.257481   -1.885823   -0.360124
    103          1           0       -7.304804   -0.523431   -0.460163
    104          1           0       -6.542781    0.341234    1.440224
    105          1           0       -3.814574   -2.801734    3.407573
    106          1           0       -3.265625   -1.477014    4.452064
    107          1           0       -4.965068   -1.983875    4.528168
    108          1           0       -4.224878    2.872356    3.420549
    109          1           0       -5.661980    1.967599    2.968098
    110          1           0       -5.218328    3.417938    2.048883
 ---------------------------------------------------------------------
 Rotational constants (GHZ):           0.0994819           0.0310835           0.0285912
 Standard basis: STO-3G (5D, 7F)
 There are   326 symmetry adapted cartesian basis functions of A   symmetry.
 There are   326 symmetry adapted basis functions of A   symmetry.
   326 basis functions,   978 primitive gaussians,   326 cartesian basis functions
   197 alpha electrons      197 beta electrons
       nuclear repulsion energy      8095.8038115108 Hartrees.
 NAtoms=  110 NActive=  110 NUniq=  110 SFac= 1.00D+00 NAtFMM=   60 NAOKFM=T Big=T
 Integral buffers will be    131072 words long.
 Raffenetti 1 integral format.
 Two-electron integral symmetry is turned on.
 One-electron integrals computed using PRISM.
 NBasis=   326 RedAO= T EigKep=  1.72D-01  NBF=   326
 NBsUse=   326 1.00D-06 EigRej= -1.00D+00 NBFU=   326
 ExpMin= 1.69D-01 ExpMax= 1.31D+02 ExpMxC= 1.31D+02 IAcc=3 IRadAn=         5 AccDes= 0.00D+00
 Harris functional with IExCor=  205 and IRadAn=       5 diagonalized for initial guess.
 HarFok:  IExCor=  205 AccDes= 0.00D+00 IRadAn=         5 IDoV= 1 UseB2=F ITyADJ=14
 ICtDFT=  3500011 ScaDFX=  1.000000  1.000000  1.000000  1.000000
 FoFCou: FMM=F IPFlag=           0 FMFlag=      100000 FMFlg1=        2001
         NFxFlg=           0 DoJE=T BraDBF=F KetDBF=T FulRan=T
         wScrn=  0.000000 ICntrl=       500 IOpCl=  0 I1Cent=   200000004 NGrid=           0
         NMat0=    1 NMatS0=      1 NMatT0=    0 NMatD0=    1 NMtDS0=    0 NMtDT0=    0
 Petite list used in FoFCou.
 Requested convergence on RMS density matrix=1.00D-08 within 128 cycles.
 Requested convergence on MAX density matrix=1.00D-06.
 Requested convergence on             energy=1.00D-06.
 No special actions if energy rises.
 Integral accuracy reduced to 1.0D-05 until final iterations.
 Initial convergence to 1.0D-05 achieved.  Increase integral accuracy.
 SCF Done:  E(RHF) =  -2300.19919239     A.U. after   16 cycles
            NFock= 16  Conv=0.39D-08     -V/T= 2.0093
 Range of M.O.s used for correlation:     1   326
 NBasis=   326 NAE=   197 NBE=   197 NFC=     0 NFV=     0
 NROrb=    326 NOA=   197 NOB=   197 NVA=   129 NVB=   129
          Differentiating once with respect to magnetic field using GIAOs.
          Electric field/nuclear overlap derivatives assumed to be zero.
 FoFCou: FMM=F IPFlag=           0 FMFlag=      100000 FMFlg1=        2001
         NFxFlg=           0 DoJE=F BraDBF=F KetDBF=T FulRan=T
         wScrn=  0.000000 ICntrl=      6100 IOpCl=  0 I1Cent=           7 NGrid=         110
         NMat0=    1 NMatS0=      1 NMatT0=    0 NMatD0=    1 NMtDS0=    0 NMtDT0=    0
 Symmetry not used in FoFCou.
 FoFJK:  IHMeth= 1 ICntrl=    6127 DoSepK=F KAlg= 0 I1Cent=           0 FoldK=F
 IRaf=         1 NMat=       1 IRICut=       1 DoRegI=T DoRafI=F ISym2E= 0 IDoP0=0 IntGTp=1.
          There are     3 degrees of freedom in the 1st order CPHF.  IDoFFX=0 NUNeed=     3.
      3 vectors produced by pass  0 Test12= 8.47D-13 3.33D-08 XBig12= 1.85D+02 2.48D+00.
 AX will form     3 AO Fock derivatives at one time.
      3 vectors produced by pass  1 Test12= 8.47D-13 3.33D-08 XBig12= 8.58D-01 3.14D-01.
      3 vectors produced by pass  2 Test12= 8.47D-13 3.33D-08 XBig12= 1.91D-02 3.97D-02.
      3 vectors produced by pass  3 Test12= 8.47D-13 3.33D-08 XBig12= 4.75D-04 6.79D-03.
      3 vectors produced by pass  4 Test12= 8.47D-13 3.33D-08 XBig12= 1.71D-05 1.07D-03.
      3 vectors produced by pass  5 Test12= 8.47D-13 3.33D-08 XBig12= 3.22D-07 7.66D-05.
      3 vectors produced by pass  6 Test12= 8.47D-13 3.33D-08 XBig12= 1.24D-08 2.58D-05.
      3 vectors produced by pass  7 Test12= 8.47D-13 3.33D-08 XBig12= 4.12D-10 3.35D-06.
      3 vectors produced by pass  8 Test12= 8.47D-13 3.33D-08 XBig12= 6.43D-12 3.18D-07.
      2 vectors produced by pass  9 Test12= 8.47D-13 3.33D-08 XBig12= 1.11D-13 4.64D-08.
 InvSVY:  IOpt=1 It=  1 EMax= 5.33D-15
 Solved reduced A of dimension    29 with     3 vectors.
 Calculating GIAO nuclear magnetic shielding tensors.
 SCF GIAO Magnetic shielding tensor (ppm):
      1  C    Isotropic =   124.9761   Anisotropy =   151.8696
   XX=    88.0329   YX=   -37.3652   ZX=   -43.0200
   XY=   -44.0187   YY=    75.6631   ZY=    -4.7218
   XZ=   -46.8128   YZ=    -7.0126   ZZ=   211.2323
   Eigenvalues:    33.8810   114.8248   226.2225
      2  C    Isotropic =   120.7464   Anisotropy =   156.3020
   XX=    68.0405   YX=    18.3509   ZX=   -51.6531
   XY=    11.5789   YY=    88.9456   ZY=    13.3303
   XZ=   -58.0970   YZ=    13.5964   ZZ=   205.2530
   Eigenvalues:    41.4735    95.8179   224.9477
      3  C    Isotropic =   119.3756   Anisotropy =   148.0837
   XX=   119.2473   YX=     9.5974   ZX=   -31.4578
   XY=    10.4949   YY=    33.0863   ZY=    18.7262
   XZ=   -34.0405   YZ=    20.6550   ZZ=   205.7933
   Eigenvalues:    28.6805   111.3483   218.0981
      4  C    Isotropic =   133.6651   Anisotropy =   142.1461
   XX=    95.1401   YX=   -37.9715   ZX=   -38.2655
   XY=   -31.5122   YY=    89.2830   ZY=     2.3556
   XZ=   -39.2254   YZ=    -4.9700   ZZ=   216.5721
   Eigenvalues:    52.5413   120.0248   228.4291
      5  C    Isotropic =   109.0753   Anisotropy =   126.6825
   XX=    61.6907   YX=    17.0412   ZX=   -47.5063
   XY=     3.4103   YY=    88.4355   ZY=    10.4805
   XZ=   -45.1330   YZ=     4.7954   ZZ=   177.0998
   Eigenvalues:    42.1851    91.5105   193.5304
      6  C    Isotropic =   117.6217   Anisotropy =   139.0359
   XX=   100.0882   YX=    -4.4032   ZX=   -32.5915
   XY=     3.1620   YY=    51.2782   ZY=    13.5254
   XZ=   -24.7630   YZ=    15.4840   ZZ=   201.4988
   Eigenvalues:    49.7912    92.7616   210.3123
      7  N    Isotropic =   273.7931   Anisotropy =    81.7563
   XX=   278.3792   YX=   -19.8833   ZX=    25.4712
   XY=   -36.2860   YY=   275.0947   ZY=   -36.7218
   XZ=    18.3189   YZ=   -25.8096   ZZ=   267.9052
   Eigenvalues:   239.7332   253.3487   328.2973
      8  C    Isotropic =   196.1161   Anisotropy =    14.4166
   XX=   201.2748   YX=     4.0101   ZX=    -3.6514
   XY=     9.0010   YY=   195.9104   ZY=     2.2658
   XZ=     0.1972   YZ=     6.9406   ZZ=   191.1632
   Eigenvalues:   186.5348   196.0864   205.7272
      9  C    Isotropic =   181.1262   Anisotropy =    45.0677
   XX=   184.2011   YX=    20.0354   ZX=     0.5689
   XY=    13.0226   YY=   199.7263   ZY=    -6.1893
   XZ=    12.3892   YZ=   -17.9967   ZZ=   159.4514
   Eigenvalues:   152.0679   180.1394   211.1714
     10  C    Isotropic =   190.1453   Anisotropy =    28.5970
   XX=   178.6057   YX=    11.0679   ZX=     5.7898
   XY=     7.2904   YY=   197.1693   ZY=     9.4761
   XZ=     2.5655   YZ=    10.8065   ZZ=   194.6610
   Eigenvalues:   174.8334   186.3926   209.2100
     11  C    Isotropic =   213.8784   Anisotropy =    18.5835
   XX=   208.9779   YX=    -1.2973   ZX=    -8.7991
   XY=     4.7267   YY=   209.5979   ZY=     0.2980
   XZ=    -6.0530   YZ=     2.2771   ZZ=   223.0594
   Eigenvalues:   204.8656   210.5022   226.2674
     12  C    Isotropic =   213.0007   Anisotropy =    20.2997
   XX=   206.8851   YX=     3.6360   ZX=     0.2865
   XY=     2.5400   YY=   217.1366   ZY=    11.2952
   XZ=    -0.2132   YZ=     8.9874   ZZ=   214.9803
   Eigenvalues:   204.1759   208.2923   226.5338
     13  C    Isotropic =   213.7402   Anisotropy =     8.1036
   XX=   215.7249   YX=    -0.7444   ZX=    -6.0976
   XY=     0.4786   YY=   212.8269   ZY=    -2.1405
   XZ=    -2.3212   YZ=    -3.8916   ZZ=   212.6688
   Eigenvalues:   208.2275   213.8505   219.1426
     14  N    Isotropic =   302.1007   Anisotropy =    52.3808
   XX=   293.1548   YX=    42.2075   ZX=   -31.0582
   XY=    25.0744   YY=   301.0560   ZY=    28.3992
   XZ=   -20.4733   YZ=    31.0787   ZZ=   312.0913
   Eigenvalues:   241.5606   327.7204   337.0212
     15  C    Isotropic =   205.3531   Anisotropy =    32.6904
   XX=   205.1077   YX=    11.8156   ZX=     1.5995
   XY=    15.6761   YY=   216.6270   ZY=   -10.4354
   XZ=     2.7414   YZ=    -8.2049   ZZ=   194.3245
   Eigenvalues:   187.4777   201.4348   227.1467
     16  C    Isotropic =   224.3744   Anisotropy =     8.4062
   XX=   223.4163   YX=     4.6788   ZX=     4.6192
   XY=    -0.1788   YY=   224.4875   ZY=     2.0422
   XZ=     4.6042   YZ=     0.1488   ZZ=   225.2194
   Eigenvalues:   219.3818   223.7629   229.9785
     17  C    Isotropic =   215.4190   Anisotropy =    19.0232
   XX=   215.1124   YX=     6.7080   ZX=     0.7727
   XY=    10.8954   YY=   222.0792   ZY=     0.2799
   XZ=    -2.3002   YZ=    -1.3352   ZZ=   209.0653
   Eigenvalues:   208.7393   209.4166   228.1011
     18  C    Isotropic =   210.6969   Anisotropy =    36.5306
   XX=   190.2915   YX=    -2.0184   ZX=    -6.2074
   XY=     4.8155   YY=   219.9078   ZY=    12.3868
   XZ=    -3.8140   YZ=    15.5107   ZZ=   221.8913
   Eigenvalues:   189.0295   208.0105   235.0506
     19  C    Isotropic =   199.7866   Anisotropy =    43.0374
   XX=   202.5119   YX=    10.4073   ZX=   -27.4731
   XY=    13.2094   YY=   193.2584   ZY=     4.3269
   XZ=   -21.2624   YZ=     2.3018   ZZ=   203.5895
   Eigenvalues:   172.8290   198.0527   228.4782
     20  C    Isotropic =   212.1954   Anisotropy =    22.1545
   XX=   224.3067   YX=     0.3230   ZX=    -6.8289
   XY=     1.6386   YY=   209.4481   ZY=    -5.4260
   XZ=    -7.5970   YZ=    -6.9459   ZZ=   202.8314
   Eigenvalues:   197.8388   211.7823   226.9650
     21  C    Isotropic =   209.1131   Anisotropy =    10.6867
   XX=   211.0673   YX=    -2.2396   ZX=    -4.4117
   XY=    -9.1712   YY=   207.7959   ZY=    -1.1848
   XZ=    -6.3193   YZ=    -6.3182   ZZ=   208.4760
   Eigenvalues:   199.2007   211.9011   216.2376
     22  C    Isotropic =    96.4217   Anisotropy =    98.7401
   XX=    27.8560   YX=   -51.5306   ZX=    69.0699
   XY=   -64.2233   YY=   137.0482   ZY=    35.2433
   XZ=    55.4599   YZ=    21.5404   ZZ=   124.3609
   Eigenvalues:   -27.8649   154.8816   162.2484
     23  O    Isotropic =  -134.7597   Anisotropy =   887.6473
   XX=   -72.8898   YX=  -245.2761   ZX=   242.3888
   XY=  -259.6804   YY=  -223.7496   ZY=  -399.0761
   XZ=   225.1613   YZ=  -395.3163   ZZ=  -107.6396
   Eigenvalues:  -571.2227  -290.0615   457.0052
     24  O    Isotropic =   283.8415   Anisotropy =   140.0212
   XX=   305.4829   YX=     5.2791   ZX=    61.6281
   XY=    99.3018   YY=   338.2067   ZY=  -111.5047
   XZ=   132.1053   YZ=   -18.3291   ZZ=   207.8349
   Eigenvalues:   117.1811   357.1545   377.1890
     25  C    Isotropic =   197.3550   Anisotropy =    57.7399
   XX=   208.7073   YX=    -1.1429   ZX=   -28.5446
   XY=    -1.3108   YY=   177.5815   ZY=     0.2892
   XZ=   -28.5318   YZ=     1.0115   ZZ=   205.7763
   Eigenvalues:   177.4374   178.7794   235.8483
     26  C    Isotropic =   209.9030   Anisotropy =    41.6993
   XX=   216.7541   YX=    13.2986   ZX=    13.0812
   XY=    15.3111   YY=   206.9590   ZY=    13.2951
   XZ=    12.2873   YZ=    14.2798   ZZ=   205.9960
   Eigenvalues:   192.6213   199.3853   237.7025
     27  C    Isotropic =   206.5280   Anisotropy =    17.5729
   XX=   217.4337   YX=     1.6086   ZX=    -4.8151
   XY=     1.1576   YY=   202.1750   ZY=    -6.0239
   XZ=    -0.9534   YZ=    -5.0530   ZZ=   199.9752
   Eigenvalues:   195.3430   205.9978   218.2432
     28  C    Isotropic =   119.5249   Anisotropy =   160.6590
   XX=   115.1139   YX=   -65.8737   ZX=    69.6979
   XY=   -59.0604   YY=   132.2751   ZY=   -34.5376
   XZ=    61.6029   YZ=   -26.9540   ZZ=   111.1859
   Eigenvalues:    39.9063    92.0376   226.6310
     29  C    Isotropic =   126.9883   Anisotropy =   146.1289
   XX=   163.8126   YX=   -26.9733   ZX=    56.0604
   XY=   -24.8951   YY=   125.6279   ZY=   -74.2437
   XZ=    44.9653   YZ=   -60.9460   ZZ=    91.5244
   Eigenvalues:    33.7467   122.8107   224.4076
     30  C    Isotropic =   119.0574   Anisotropy =   156.0703
   XX=   127.7755   YX=   -83.4837   ZX=    30.7700
   XY=   -75.8601   YY=    98.7405   ZY=   -47.1243
   XZ=    19.4648   YZ=   -51.7323   ZZ=   130.6563
   Eigenvalues:    26.8594   107.2085   223.1043
     31  C    Isotropic =   133.7646   Anisotropy =   144.1504
   XX=   167.6934   YX=   -31.7936   ZX=    48.8883
   XY=   -37.7347   YY=   136.8437   ZY=   -57.1906
   XZ=    43.8206   YZ=   -61.2786   ZZ=    96.7567
   Eigenvalues:    51.0058   120.4232   229.8649
     32  C    Isotropic =   108.1592   Anisotropy =   130.8215
   XX=   115.7583   YX=   -40.8379   ZX=    56.2886
   XY=   -49.3344   YY=   112.0837   ZY=   -27.4369
   XZ=    66.1721   YZ=   -12.4471   ZZ=    96.6357
   Eigenvalues:    40.5141    88.5900   195.3735
     33  C    Isotropic =   117.1032   Anisotropy =   143.3742
   XX=   143.6087   YX=   -60.7493   ZX=    37.3438
   XY=   -63.3287   YY=    95.7936   ZY=   -34.3029
   XZ=    32.1389   YZ=   -46.0698   ZZ=   111.9075
   Eigenvalues:    49.0510    89.5727   212.6861
     34  N    Isotropic =   271.9493   Anisotropy =    83.9618
   XX=   311.1648   YX=    23.1050   ZX=   -10.6700
   XY=    41.4935   YY=   257.3602   ZY=   -14.6246
   XZ=    -5.0421   YZ=    -5.6699   ZZ=   247.3227
   Eigenvalues:   237.9082   250.0157   327.9238
     35  C    Isotropic =   200.6158   Anisotropy =    13.2471
   XX=   193.8129   YX=    -4.2764   ZX=    -3.8312
   XY=    -3.6036   YY=   199.2840   ZY=     5.7420
   XZ=    -1.4669   YZ=    -4.0614   ZZ=   208.7504
   Eigenvalues:   191.5241   200.8760   209.4472
     36  C    Isotropic =   178.7864   Anisotropy =    38.2330
   XX=   173.4979   YX=    18.1519   ZX=    -7.9168
   XY=     5.1617   YY=   171.6571   ZY=    16.5155
   XZ=     2.7723   YZ=    23.5158   ZZ=   191.2041
   Eigenvalues:   152.9132   179.1709   204.2750
     37  C    Isotropic =   183.6947   Anisotropy =    42.8805
   XX=   175.8036   YX=   -15.8113   ZX=     7.7760
   XY=   -20.6359   YY=   203.1683   ZY=     5.2104
   XZ=    12.8940   YZ=     6.2942   ZZ=   172.1123
   Eigenvalues:   157.2806   181.5219   212.2817
     38  C    Isotropic =   210.8213   Anisotropy =    24.0789
   XX=   210.5330   YX=    -4.5060   ZX=    10.6446
   XY=    -8.1199   YY=   212.3426   ZY=    -2.5441
   XZ=    10.8212   YZ=   -11.4142   ZZ=   209.5883
   Eigenvalues:   199.2663   206.3237   226.8739
     39  C    Isotropic =   212.6085   Anisotropy =    20.2630
   XX=   203.1925   YX=    -3.8981   ZX=    -0.6700
   XY=    -2.9206   YY=   225.3274   ZY=     0.4564
   XZ=     2.1756   YZ=     4.1247   ZZ=   209.3056
   Eigenvalues:   202.5009   209.2074   226.1172
     40  C    Isotropic =   211.3674   Anisotropy =    11.8698
   XX=   211.1733   YX=     3.4408   ZX=     5.4651
   XY=     2.7569   YY=   209.1613   ZY=     2.9289
   XZ=     5.0207   YZ=     1.7727   ZZ=   213.7675
   Eigenvalues:   206.4180   208.4036   219.2806
     41  N    Isotropic =   235.2403   Anisotropy =    22.7739
   XX=   240.2690   YX=     5.3846   ZX=    -9.9370
   XY=    -2.7793   YY=   244.3284   ZY=     6.8598
   XZ=   -20.7340   YZ=   -14.9883   ZZ=   221.1236
   Eigenvalues:   212.3490   242.9491   250.4229
     42  C    Isotropic =   193.7335   Anisotropy =    50.1531
   XX=   181.5949   YX=    -0.0018   ZX=     7.5864
   XY=     0.1250   YY=   180.4665   ZY=    20.7051
   XZ=     2.9628   YZ=    16.5096   ZZ=   219.1392
   Eigenvalues:   172.5418   181.4899   227.1689
     43  C    Isotropic =   219.1836   Anisotropy =    11.4054
   XX=   223.8848   YX=    -2.9607   ZX=     5.0280
   XY=    -4.1753   YY=   219.8915   ZY=     6.1442
   XZ=     7.2373   YZ=     8.1901   ZZ=   213.7745
   Eigenvalues:   206.2016   224.5620   226.7872
     44  C    Isotropic =   214.7122   Anisotropy =    22.6744
   XX=   206.5096   YX=     0.0218   ZX=     8.1986
   XY=    -0.8469   YY=   216.1964   ZY=    10.2073
   XZ=     4.5337   YZ=     9.0694   ZZ=   221.4305
   Eigenvalues:   202.7347   211.5734   229.8284
     45  C    Isotropic =   206.2965   Anisotropy =    35.6575
   XX=   205.5527   YX=   -19.8511   ZX=     8.4873
   XY=   -17.7598   YY=   215.6405   ZY=     7.9760
   XZ=    14.6164   YZ=     9.2520   ZZ=   197.6962
   Eigenvalues:   179.6328   209.1885   230.0681
     46  C    Isotropic =   190.4443   Anisotropy =    56.2937
   XX=   217.9093   YX=    -6.1793   ZX=    20.9699
   XY=     3.1276   YY=   177.8259   ZY=     8.9469
   XZ=    24.2472   YZ=    15.7089   ZZ=   175.5976
   Eigenvalues:   158.4091   184.9504   227.9734
     47  C    Isotropic =   211.0621   Anisotropy =    24.2109
   XX=   205.0375   YX=     7.6807   ZX=    -1.4432
   XY=     7.7410   YY=   201.4630   ZY=    -2.8858
   XZ=    -0.1999   YZ=    -3.2409   ZZ=   226.6858
   Eigenvalues:   195.2203   210.7633   227.2027
     48  C    Isotropic =   207.5726   Anisotropy =    11.4428
   XX=   204.6426   YX=     2.3865   ZX=     0.3866
   XY=     0.6597   YY=   209.3306   ZY=    -9.4001
   XZ=     0.1480   YZ=    -2.7511   ZZ=   208.7445
   Eigenvalues:   202.2807   205.2359   215.2011
     49  C    Isotropic =    98.4913   Anisotropy =   103.6858
   XX=   100.7415   YX=    34.6499   ZX=   -92.5482
   XY=    24.1875   YY=   154.1820   ZY=    25.1525
   XZ=   -76.9669   YZ=    43.2058   ZZ=    40.5504
   Eigenvalues:   -30.2288   158.0876   167.6152
     50  O    Isotropic =  -132.8659   Anisotropy =   875.3733
   XX=   -50.4184   YX=  -341.3744   ZX=  -283.5327
   XY=  -365.4647   YY=  -312.7604   ZY=   211.5769
   XZ=  -273.1499   YZ=   221.6317   ZZ=   -35.4189
   Eigenvalues:  -559.5580  -289.7560   450.7163
     51  O    Isotropic =   286.4822   Anisotropy =   131.8719
   XX=   364.0405   YX=   -50.4050   ZX=    47.5990
   XY=    41.5636   YY=   207.0263   ZY=   156.0106
   XZ=   -22.7697   YZ=    71.5825   ZZ=   288.3798
   Eigenvalues:   126.3670   358.6828   374.3968
     52  C    Isotropic =   197.5820   Anisotropy =    57.2299
   XX=   181.5437   YX=    -9.4891   ZX=     8.8295
   XY=    -8.5057   YY=   200.9285   ZY=   -26.7082
   XZ=     8.6428   YZ=   -27.0046   ZZ=   210.2738
   Eigenvalues:   177.2637   179.7470   235.7352
     53  C    Isotropic =   210.7562   Anisotropy =    42.1416
   XX=   206.8310   YX=   -14.1046   ZX=   -14.1726
   XY=   -12.7888   YY=   209.8563   ZY=    14.2308
   XZ=   -15.1822   YZ=    12.7453   ZZ=   215.5813
   Eigenvalues:   194.2706   199.1474   238.8506
     54  O    Isotropic =    79.2158   Anisotropy =   396.9499
   XX=    24.0582   YX=   121.9651   ZX=  -100.8769
   XY=    99.8295   YY=   126.0425   ZY=  -156.5317
   XZ=   -94.8220   YZ=  -178.5825   ZZ=    87.5466
   Eigenvalues:   -61.8929   -44.3088   343.8490
     55  H    Isotropic =    26.1547   Anisotropy =    16.2015
   XX=    32.7018   YX=    -5.0059   ZX=     1.1286
   XY=    -6.1351   YY=    28.2688   ZY=    -0.9844
   XZ=     3.7125   YZ=    -2.7122   ZZ=    17.4936
   Eigenvalues:    17.0148    24.4937    36.9557
     56  H    Isotropic =    25.6837   Anisotropy =     6.6129
   XX=    29.1204   YX=     1.7449   ZX=     1.7418
   XY=     1.1007   YY=    27.1212   ZY=    -0.5227
   XZ=     1.9642   YZ=    -0.3842   ZZ=    20.8093
   Eigenvalues:    20.3321    26.6267    30.0923
     57  H    Isotropic =    26.5475   Anisotropy =     7.8720
   XX=    27.7991   YX=    -0.6581   ZX=     2.4314
   XY=    -0.6109   YY=    31.0338   ZY=    -2.0462
   XZ=     2.1694   YZ=    -2.2777   ZZ=    20.8097
   Eigenvalues:    19.7980    28.0490    31.7955
     58  H    Isotropic =    31.9581   Anisotropy =    13.2677
   XX=    38.8793   YX=    -3.4507   ZX=    -0.3444
   XY=    -5.2371   YY=    30.5569   ZY=     1.5558
   XZ=    -1.4811   YZ=    -0.7337   ZZ=    26.4380
   Eigenvalues:    26.3681    28.7029    40.8032
     59  H    Isotropic =    32.2784   Anisotropy =    13.6610
   XX=    30.6728   YX=     5.6428   ZX=     4.0430
   XY=     4.9169   YY=    29.8603   ZY=     3.0059
   XZ=     5.7335   YZ=     2.2675   ZZ=    36.3020
   Eigenvalues:    24.7544    30.6950    41.3857
     60  H    Isotropic =    33.1883   Anisotropy =     8.8643
   XX=    31.6768   YX=    -4.0984   ZX=    -3.5076
   XY=    -4.8077   YY=    35.6981   ZY=     2.2739
   XZ=    -0.7841   YZ=    -0.5716   ZZ=    32.1899
   Eigenvalues:    28.2952    32.1718    39.0978
     61  H    Isotropic =    32.4634   Anisotropy =    14.9796
   XX=    28.2270   YX=     0.0950   ZX=     4.4621
   XY=     0.0756   YY=    28.8760   ZY=    -3.0925
   XZ=     4.4152   YZ=    -3.4569   ZZ=    40.2874
   Eigenvalues:    26.1849    28.7556    42.4498
     62  H    Isotropic =    32.8037   Anisotropy =    13.0437
   XX=    36.4490   YX=    -1.0091   ZX=    -6.3402
   XY=    -1.6356   YY=    28.8995   ZY=     2.1851
   XZ=    -6.0711   YZ=     0.8740   ZZ=    33.0625
   Eigenvalues:    28.0267    28.8848    41.4995
     63  H    Isotropic =    32.0261   Anisotropy =    18.0203
   XX=    44.0242   YX=    -1.2480   ZX=     0.0200
   XY=     0.3287   YY=    27.7694   ZY=    -0.9442
   XZ=    -0.5253   YZ=    -1.5703   ZZ=    24.2846
   Eigenvalues:    23.8712    28.1675    44.0396
     64  H    Isotropic =    31.8836   Anisotropy =    13.8202
   XX=    29.2639   YX=     3.0853   ZX=     3.5923
   XY=     3.9631   YY=    33.3430   ZY=     6.1270
   XZ=     3.7865   YZ=     5.2814   ZZ=    33.0439
   Eigenvalues:    27.0074    27.5462    41.0970
     65  H    Isotropic =    32.6595   Anisotropy =    16.9192
   XX=    30.0532   YX=     6.4834   ZX=    -0.5231
   XY=     6.0569   YY=    40.2624   ZY=    -3.3107
   XZ=    -0.5026   YZ=    -3.6404   ZZ=    27.6630
   Eigenvalues:    26.0108    28.0287    43.9390
     66  H    Isotropic =    32.5925   Anisotropy =    11.8425
   XX=    34.4921   YX=    -4.7317   ZX=    -2.3979
   XY=    -4.3328   YY=    35.6144   ZY=     2.4226
   XZ=    -2.3824   YZ=     2.2498   ZZ=    27.6708
   Eigenvalues:    26.7888    30.5011    40.4874
     67  H    Isotropic =    32.7667   Anisotropy =    12.6597
   XX=    37.0008   YX=     1.0627   ZX=    -6.0193
   XY=     1.1064   YY=    29.1222   ZY=    -0.1480
   XZ=    -6.0788   YZ=    -0.6751   ZZ=    32.1770
   Eigenvalues:    28.0064    29.0872    41.2065
     68  H    Isotropic =    32.5465   Anisotropy =    14.7855
   XX=    28.7962   YX=    -1.0039   ZX=     4.2715
   XY=    -0.6603   YY=    33.8349   ZY=    -7.0091
   XZ=     3.6921   YZ=    -7.0730   ZZ=    35.0083
   Eigenvalues:    25.5817    29.6543    42.4035
     69  H    Isotropic =    32.9484   Anisotropy =    12.0111
   XX=    39.3535   YX=     0.9076   ZX=    -4.0220
   XY=     0.3324   YY=    27.0422   ZY=     0.2564
   XZ=    -3.3548   YZ=     1.6802   ZZ=    32.4494
   Eigenvalues:    26.7273    31.1621    40.9558
     70  H    Isotropic =    32.4281   Anisotropy =    10.7404
   XX=    27.5162   YX=    -2.7696   ZX=     2.3227
   XY=    -2.4608   YY=    32.5714   ZY=    -4.3984
   XZ=     3.2794   YZ=    -1.0918   ZZ=    37.1966
   Eigenvalues:    26.1625    31.5334    39.5883
     71  H    Isotropic =    31.8956   Anisotropy =    15.0178
   XX=    27.4489   YX=     1.6554   ZX=     0.3193
   XY=     1.6742   YY=    28.5026   ZY=     4.7400
   XZ=     2.5355   YZ=     5.2928   ZZ=    39.7352
   Eigenvalues:    25.8091    27.9701    41.9075
     72  H    Isotropic =    31.9621   Anisotropy =     9.8949
   XX=    33.4247   YX=    -4.4358   ZX=    -1.8390
   XY=    -4.4809   YY=    33.1586   ZY=     1.7364
   XZ=    -1.3801   YZ=     2.7824   ZZ=    29.3029
   Eigenvalues:    28.1562    29.1713    38.5586
     73  H    Isotropic =    31.4264   Anisotropy =     9.5123
   XX=    31.3223   YX=    -2.2537   ZX=    -1.5721
   XY=    -0.9917   YY=    33.9925   ZY=     4.7605
   XZ=    -1.7693   YZ=     5.0158   ZZ=    28.9644
   Eigenvalues:    25.9135    30.5978    37.7680
     74  H    Isotropic =    32.2664   Anisotropy =    14.8600
   XX=    32.9923   YX=    -3.4565   ZX=     5.2462
   XY=    -2.8188   YY=    32.4028   ZY=    -6.6620
   XZ=     4.6562   YZ=    -6.7397   ZZ=    31.4041
   Eigenvalues:    24.8033    29.8228    42.1730
     75  H    Isotropic =    31.2468   Anisotropy =    12.7680
   XX=    35.5527   YX=     1.8736   ZX=     5.7988
   XY=     1.4450   YY=    26.8516   ZY=    -0.9462
   XZ=     5.8397   YZ=     0.6228   ZZ=    31.3359
   Eigenvalues:    25.8792    28.1023    39.7588
     76  H    Isotropic =    30.5431   Anisotropy =    12.2146
   XX=    34.9751   YX=     5.4135   ZX=    -1.8960
   XY=     4.9269   YY=    30.5533   ZY=     0.1366
   XZ=    -2.6443   YZ=    -0.2652   ZZ=    26.1011
   Eigenvalues:    25.1139    27.8293    38.6862
     77  H    Isotropic =    30.6426   Anisotropy =     7.7830
   XX=    30.5398   YX=    -0.1591   ZX=    -0.4877
   XY=     0.2070   YY=    25.8381   ZY=    -0.8100
   XZ=    -1.4847   YZ=    -1.1573   ZZ=    35.5497
   Eigenvalues:    25.7383    30.3581    35.8312
     78  H    Isotropic =    30.5737   Anisotropy =    11.7592
   XX=    34.5060   YX=    -4.4779   ZX=    -2.1131
   XY=    -5.3410   YY=    31.1372   ZY=     0.5515
   XZ=    -2.3127   YZ=     0.8924   ZZ=    26.0779
   Eigenvalues:    25.4603    27.8476    38.4132
     79  H    Isotropic =    31.9241   Anisotropy =    11.4545
   XX=    29.0573   YX=     1.3987   ZX=    -0.6440
   XY=     1.2750   YY=    33.2518   ZY=     6.1488
   XZ=     1.5280   YZ=     5.9556   ZZ=    33.4633
   Eigenvalues:    27.0804    29.1315    39.5605
     80  H    Isotropic =    30.7372   Anisotropy =    14.7145
   XX=    32.6859   YX=     6.4210   ZX=    -1.3908
   XY=     6.4300   YY=    34.4970   ZY=    -2.6014
   XZ=    -0.6046   YZ=    -2.7754   ZZ=    25.0287
   Eigenvalues:    24.2204    27.4443    40.5469
     81  H    Isotropic =    30.9119   Anisotropy =    10.9916
   XX=    35.8721   YX=    -0.5526   ZX=     4.7561
   XY=    -0.0451   YY=    30.4842   ZY=     0.6905
   XZ=     5.8396   YZ=     0.2561   ZZ=    26.3793
   Eigenvalues:    23.9656    30.5304    38.2396
     82  H    Isotropic =    30.1719   Anisotropy =     8.4130
   XX=    27.8765   YX=     1.6462   ZX=     1.1236
   XY=     2.2819   YY=    27.4958   ZY=    -0.0118
   XZ=     3.1387   YZ=     0.3495   ZZ=    35.1434
   Eigenvalues:    25.5215    29.2137    35.7806
     83  H    Isotropic =    29.8734   Anisotropy =    12.4264
   XX=    28.1268   YX=     0.3526   ZX=     0.0024
   XY=     2.0855   YY=    37.6441   ZY=    -2.0253
   XZ=    -1.5379   YZ=    -2.3519   ZZ=    23.8493
   Eigenvalues:    23.4388    28.0238    38.1577
     84  H    Isotropic =    25.9146   Anisotropy =    11.9260
   XX=    29.6690   YX=     5.5277   ZX=    -1.4999
   XY=     5.2050   YY=    26.2310   ZY=    -1.1984
   XZ=    -1.6355   YZ=    -0.7329   ZZ=    21.8437
   Eigenvalues:    21.5373    22.3411    33.8652
     85  H    Isotropic =    25.9357   Anisotropy =     7.1358
   XX=    26.4341   YX=     0.5057   ZX=    -3.5740
   XY=     1.0612   YY=    25.8827   ZY=     2.3787
   XZ=    -4.9966   YZ=     3.2754   ZZ=    25.4902
   Eigenvalues:    20.3600    26.7541    30.6929
     86  H    Isotropic =    26.5169   Anisotropy =     7.6299
   XX=    27.2313   YX=     4.2976   ZX=    -1.6072
   XY=     4.3969   YY=    27.1874   ZY=     3.0386
   XZ=    -2.9498   YZ=     2.8998   ZZ=    25.1321
   Eigenvalues:    20.1084    27.8388    31.6035
     87  H    Isotropic =    31.5948   Anisotropy =     5.7658
   XX=    31.4236   YX=     3.0291   ZX=    -1.7780
   XY=     2.2974   YY=    30.1345   ZY=    -1.6255
   XZ=    -2.1519   YZ=     0.0251   ZZ=    33.2262
   Eigenvalues:    27.9628    31.3828    35.4386
     88  H    Isotropic =    32.9944   Anisotropy =     8.8681
   XX=    32.1723   YX=     3.5942   ZX=     2.0506
   XY=    -0.1156   YY=    38.3826   ZY=    -1.5032
   XZ=     3.6774   YZ=    -1.6394   ZZ=    28.4285
   Eigenvalues:    26.4662    33.6106    38.9065
     89  H    Isotropic =    32.0378   Anisotropy =    13.6207
   XX=    36.0207   YX=    -5.8364   ZX=    -2.1357
   XY=    -7.0246   YY=    30.3039   ZY=     3.4603
   XZ=    -0.8328   YZ=     3.6479   ZZ=    29.7886
   Eigenvalues:    24.9857    30.0094    41.1182
     90  H    Isotropic =    32.1326   Anisotropy =    15.9547
   XX=    38.7534   YX=    -4.6893   ZX=     5.3151
   XY=    -5.4704   YY=    28.9784   ZY=    -0.2822
   XZ=     5.4519   YZ=    -0.3402   ZZ=    28.6660
   Eigenvalues:    25.1018    28.5270    42.7691
     91  H    Isotropic =    32.7982   Anisotropy =    11.9249
   XX=    28.7612   YX=     2.0437   ZX=    -0.4921
   XY=     0.1521   YY=    33.4574   ZY=    -6.2609
   XZ=    -0.1506   YZ=    -5.1367   ZZ=    36.1760
   Eigenvalues:    28.1491    29.4974    40.7482
     92  H    Isotropic =    30.7505   Anisotropy =    13.4258
   XX=    29.3870   YX=    -4.9094   ZX=     0.4512
   XY=    -4.6079   YY=    35.3902   ZY=     4.6729
   XZ=     0.7552   YZ=     6.0401   ZZ=    27.4743
   Eigenvalues:    23.3296    29.2209    39.7010
     93  H    Isotropic =    31.8550   Anisotropy =    10.2736
   XX=    32.3401   YX=     1.7330   ZX=    -3.7974
   XY=     1.8345   YY=    27.0617   ZY=     1.1033
   XZ=    -4.2223   YZ=     0.3456   ZZ=    36.1631
   Eigenvalues:    26.0876    30.7733    38.7040
     94  H    Isotropic =    31.0309   Anisotropy =    12.9413
   XX=    30.1867   YX=     5.8138   ZX=    -0.8032
   XY=     5.8563   YY=    35.9945   ZY=    -0.6341
   XZ=    -0.3240   YZ=    -0.5489   ZZ=    26.9116
   Eigenvalues:    26.4962    26.9381    39.6585
     95  H    Isotropic =    32.2491   Anisotropy =    17.5491
   XX=    28.2190   YX=     0.3443   ZX=     3.2709
   XY=     0.4259   YY=    28.9256   ZY=     6.9279
   XZ=     4.0704   YZ=     7.3678   ZZ=    39.6028
   Eigenvalues:    24.7445    28.0543    43.9485
     96  H    Isotropic =    32.0411   Anisotropy =    15.4517
   XX=    40.1125   YX=     1.5196   ZX=     4.6946
   XY=     1.4303   YY=    26.8066   ZY=     3.0321
   XZ=     4.9693   YZ=     3.0376   ZZ=    29.2041
   Eigenvalues:    24.5567    29.2243    42.3422
     97  H    Isotropic =    32.5796   Anisotropy =    12.5939
   XX=    26.5549   YX=    -0.4553   ZX=     1.4915
   XY=    -1.0860   YY=    31.8698   ZY=    -3.7111
   XZ=     1.8900   YZ=    -3.3918   ZZ=    39.3142
   Eigenvalues:    26.3142    30.4491    40.9756
     98  H    Isotropic =    32.3876   Anisotropy =    13.3199
   XX=    39.3605   YX=    -2.0039   ZX=     5.8533
   XY=     0.4011   YY=    30.2250   ZY=     1.9495
   XZ=     4.2731   YZ=    -0.9482   ZZ=    27.5773
   Eigenvalues:    25.5795    30.3157    41.2675
     99  H    Isotropic =    30.4970   Anisotropy =    11.7379
   XX=    28.7186   YX=    -1.2696   ZX=    -2.8718
   XY=    -1.2922   YY=    28.2896   ZY=    -4.6627
   XZ=    -4.4413   YZ=    -6.1381   ZZ=    34.4827
   Eigenvalues:    23.3890    29.7797    38.3222
    100  H    Isotropic =    30.6299   Anisotropy =    15.9788
   XX=    34.9966   YX=    -8.0841   ZX=     3.1522
   XY=    -5.8448   YY=    32.9600   ZY=     0.2457
   XZ=     1.9189   YZ=    -0.9181   ZZ=    23.9330
   Eigenvalues:    23.1562    27.4510    41.2824
    101  H    Isotropic =    31.1340   Anisotropy =    13.4005
   XX=    39.1957   YX=     0.5174   ZX=    -3.7830
   XY=     1.6284   YY=    27.2218   ZY=     0.5898
   XZ=    -2.6651   YZ=     0.0266   ZZ=    26.9845
   Eigenvalues:    25.9317    27.4026    40.0677
    102  H    Isotropic =    29.9944   Anisotropy =    11.2918
   XX=    27.2018   YX=     4.0317   ZX=    -2.6602
   XY=     5.0697   YY=    35.3513   ZY=     0.3100
   XZ=    -1.3134   YZ=    -1.0849   ZZ=    27.4302
   Eigenvalues:    24.2709    28.1901    37.5223
    103  H    Isotropic =    31.6851   Anisotropy =    15.1795
   XX=    41.7213   YX=     1.3973   ZX=    -0.1303
   XY=     0.9501   YY=    25.2653   ZY=     0.4273
   XZ=     0.1615   YZ=     0.4115   ZZ=    28.0687
   Eigenvalues:    25.1229    28.1277    41.8048
    104  H    Isotropic =    31.3376   Anisotropy =    13.0431
   XX=    35.2910   YX=    -2.1649   ZX=    -5.1441
   XY=    -2.2149   YY=    28.3337   ZY=     2.0072
   XZ=    -6.3589   YZ=     3.3629   ZZ=    30.3883
   Eigenvalues:    25.9157    28.0641    40.0331
    105  H    Isotropic =    30.4796   Anisotropy =     8.3291
   XX=    27.4380   YX=    -3.0705   ZX=    -0.3069
   XY=    -3.3960   YY=    34.6645   ZY=    -1.4406
   XZ=    -1.2347   YZ=    -1.1427   ZZ=    29.3362
   Eigenvalues:    25.7985    29.6079    36.0323
    106  H    Isotropic =    30.6413   Anisotropy =    10.0218
   XX=    31.5747   YX=     1.1745   ZX=     4.8154
   XY=     1.0213   YY=    26.7820   ZY=    -1.2049
   XZ=     4.4749   YZ=    -0.8054   ZZ=    33.5671
   Eigenvalues:    25.7268    28.8745    37.3225
    107  H    Isotropic =    30.5552   Anisotropy =    12.7406
   XX=    29.7835   YX=     1.2328   ZX=    -5.0540
   XY=     1.6652   YY=    26.9866   ZY=    -3.7138
   XZ=    -4.6831   YZ=    -3.4540   ZZ=    34.8955
   Eigenvalues:    25.5191    27.0976    39.0490
    108  H    Isotropic =    30.6847   Anisotropy =    14.1964
   XX=    27.6478   YX=     1.8438   ZX=     1.1026
   XY=     2.1002   YY=    28.1221   ZY=     6.4983
   XZ=     1.3206   YZ=     6.3714   ZZ=    36.2840
   Eigenvalues:    24.1759    27.7292    40.1489
    109  H    Isotropic =    31.2653   Anisotropy =    11.6196
   XX=    32.5775   YX=     1.9643   ZX=    -6.9649
   XY=     2.0428   YY=    29.4295   ZY=     2.1117
   XZ=    -6.6677   YZ=     1.8805   ZZ=    31.7890
   Eigenvalues:    23.9082    30.8761    39.0117
    110  H    Isotropic =    31.8738   Anisotropy =    12.4550
   XX=    30.1768   YX=    -5.2762   ZX=    -1.0793
   XY=    -5.8205   YY=    36.7300   ZY=     2.0626
   XZ=     0.0559   YZ=     1.4769   ZZ=    28.7145
   Eigenvalues:    26.8909    28.5533    40.1771
 End of Minotr F.D. properties file   721 does not exist.
 End of Minotr F.D. properties file   722 does not exist.
 End of Minotr F.D. properties file   788 does not exist.
 Hyperfine terms turned off by default for NAtoms > 100.

 **********************************************************************

            Population analysis using the SCF Density.

 **********************************************************************

 Orbital symmetries:
       Occupied  (A) (A) (A) (A) (A) (A) (A) (A) (A) (A) (A) (A)
                 (A) (A) (A) (A) (A) (A) (A) (A) (A) (A) (A) (A)
                 (A) (A) (A) (A) (A) (A) (A) (A) (A) (A) (A) (A)
                 (A) (A) (A) (A) (A) (A) (A) (A) (A) (A) (A) (A)
                 (A) (A) (A) (A) (A) (A) (A) (A) (A) (A) (A) (A)
                 (A) (A) (A) (A) (A) (A) (A) (A) (A) (A) (A) (A)
                 (A) (A) (A) (A) (A) (A) (A) (A) (A) (A) (A) (A)
                 (A) (A) (A) (A) (A) (A) (A) (A) (A) (A) (A) (A)
                 (A) (A) (A) (A) (A) (A) (A) (A) (A) (A) (A) (A)
                 (A) (A) (A) (A) (A) (A) (A) (A) (A) (A) (A) (A)
                 (A) (A) (A) (A) (A) (A) (A) (A) (A) (A) (A) (A)
                 (A) (A) (A) (A) (A) (A) (A) (A) (A) (A) (A) (A)
                 (A) (A) (A) (A) (A) (A) (A) (A) (A) (A) (A) (A)
                 (A) (A) (A) (A) (A) (A) (A) (A) (A) (A) (A) (A)
                 (A) (A) (A) (A) (A) (A) (A) (A) (A) (A) (A) (A)
                 (A) (A) (A) (A) (A) (A) (A) (A) (A) (A) (A) (A)
                 (A) (A) (A) (A) (A)
       Virtual   (A) (A) (A) (A) (A) (A) (A) (A) (A) (A) (A) (A)
                 (A) (A) (A) (A) (A) (A) (A) (A) (A) (A) (A) (A)
                 (A) (A) (A) (A) (A) (A) (A) (A) (A) (A) (A) (A)
                 (A) (A) (A) (A) (A) (A) (A) (A) (A) (A) (A) (A)
                 (A) (A) (A) (A) (A) (A) (A) (A) (A) (A) (A) (A)
                 (A) (A) (A) (A) (A) (A) (A) (A) (A) (A) (A) (A)
                 (A) (A) (A) (A) (A) (A) (A) (A) (A) (A) (A) (A)
                 (A) (A) (A) (A) (A) (A) (A) (A) (A) (A) (A) (A)
                 (A) (A) (A) (A) (A) (A) (A) (A) (A) (A) (A) (A)
                 (A) (A) (A) (A) (A) (A) (A) (A) (A) (A) (A) (A)
                 (A) (A) (A) (A) (A) (A) (A) (A) (A)
 The electronic state is 1-A.
 Alpha  occ. eigenvalues --  -20.30610 -20.29043 -20.24587 -20.22230 -19.91907
 Alpha  occ. eigenvalues --  -15.48131 -15.33541 -15.33517 -15.30658 -11.16495
 Alpha  occ. eigenvalues --  -11.14682 -11.10540 -11.09583 -11.09408 -11.09388
 Alpha  occ. eigenvalues --  -11.09202 -11.09093 -11.08703 -11.08097 -11.07903
 Alpha  occ. eigenvalues --  -11.07063 -11.06873 -11.06489 -11.06385 -11.06246
 Alpha  occ. eigenvalues --  -11.06150 -11.05878 -11.05676 -11.05625 -11.05557
 Alpha  occ. eigenvalues --  -11.05316 -11.05075 -11.04816 -11.04695 -11.04559
 Alpha  occ. eigenvalues --  -11.04358 -11.04166 -11.04108 -11.03888 -11.03882
 Alpha  occ. eigenvalues --  -11.03844 -11.03715 -11.03706 -11.03126 -11.02297
 Alpha  occ. eigenvalues --  -11.02250 -11.02144 -11.02028 -11.01935 -11.01751
 Alpha  occ. eigenvalues --  -11.01739 -11.01601 -11.01464 -11.01305  -1.37831
 Alpha  occ. eigenvalues --   -1.36112  -1.29602  -1.27635  -1.25396  -1.21410
 Alpha  occ. eigenvalues --   -1.20865  -1.18854  -1.10510  -1.09655  -1.08970
 Alpha  occ. eigenvalues --   -1.07550  -1.05793  -1.04875  -1.02718  -1.00808
 Alpha  occ. eigenvalues --   -0.99142  -0.98759  -0.98416  -0.97418  -0.96772
 Alpha  occ. eigenvalues --   -0.96485  -0.95185  -0.94491  -0.94166  -0.92300
 Alpha  occ. eigenvalues --   -0.91617  -0.91462  -0.90244  -0.89498  -0.87961
 Alpha  occ. eigenvalues --   -0.86395  -0.84796  -0.82877  -0.81885  -0.80925
 Alpha  occ. eigenvalues --   -0.80420  -0.79607  -0.78266  -0.77652  -0.77493
 Alpha  occ. eigenvalues --   -0.77256  -0.74474  -0.74118  -0.72778  -0.72230
 Alpha  occ. eigenvalues --   -0.71251  -0.70250  -0.69368  -0.68529  -0.65914
 Alpha  occ. eigenvalues --   -0.65293  -0.64856  -0.64787  -0.63597  -0.63230
 Alpha  occ. eigenvalues --   -0.62393  -0.62185  -0.61580  -0.61278  -0.61136
 Alpha  occ. eigenvalues --   -0.60607  -0.59702  -0.59421  -0.58714  -0.58510
 Alpha  occ. eigenvalues --   -0.58263  -0.58067  -0.57814  -0.57669  -0.57304
 Alpha  occ. eigenvalues --   -0.56799  -0.56685  -0.56600  -0.55766  -0.55284
 Alpha  occ. eigenvalues --   -0.54843  -0.54764  -0.54689  -0.54545  -0.54505
 Alpha  occ. eigenvalues --   -0.54069  -0.53816  -0.53329  -0.52511  -0.51827
 Alpha  occ. eigenvalues --   -0.51682  -0.51049  -0.50967  -0.50639  -0.50375
 Alpha  occ. eigenvalues --   -0.49958  -0.49539  -0.49442  -0.49096  -0.48588
 Alpha  occ. eigenvalues --   -0.48270  -0.48004  -0.47664  -0.47342  -0.47135
 Alpha  occ. eigenvalues --   -0.46471  -0.46159  -0.45905  -0.45589  -0.45154
 Alpha  occ. eigenvalues --   -0.44831  -0.44777  -0.44432  -0.44291  -0.43727
 Alpha  occ. eigenvalues --   -0.43542  -0.43355  -0.43133  -0.42549  -0.42517
 Alpha  occ. eigenvalues --   -0.42298  -0.41940  -0.41463  -0.41124  -0.40671
 Alpha  occ. eigenvalues --   -0.40485  -0.39877  -0.38763  -0.38419  -0.38144
 Alpha  occ. eigenvalues --   -0.37380  -0.37201  -0.36468  -0.35520  -0.34182
 Alpha  occ. eigenvalues --   -0.33301  -0.33068  -0.32058  -0.31292  -0.30811
 Alpha  occ. eigenvalues --   -0.27288  -0.27166  -0.26234  -0.21224  -0.20375
 Alpha  occ. eigenvalues --   -0.15853  -0.15355
 Alpha virt. eigenvalues --    0.26774   0.26982   0.27486   0.28939   0.30476
 Alpha virt. eigenvalues --    0.32915   0.45641   0.48094   0.48434   0.49099
 Alpha virt. eigenvalues --    0.49298   0.50146   0.50344   0.51829   0.52268
 Alpha virt. eigenvalues --    0.53760   0.54178   0.55130   0.55626   0.55944
 Alpha virt. eigenvalues --    0.57070   0.57308   0.57916   0.58123   0.59464
 Alpha virt. eigenvalues --    0.59663   0.59777   0.59958   0.60368   0.60956
 Alpha virt. eigenvalues --    0.61228   0.61630   0.62510   0.62773   0.62975
 Alpha virt. eigenvalues --    0.63174   0.63598   0.63930   0.64384   0.64626
 Alpha virt. eigenvalues --    0.64773   0.64927   0.65281   0.65665   0.65805
 Alpha virt. eigenvalues --    0.66150   0.66400   0.66635   0.67038   0.67387
 Alpha virt. eigenvalues --    0.67495   0.67591   0.67809   0.68067   0.68287
 Alpha virt. eigenvalues --    0.68412   0.68939   0.69352   0.69595   0.69854
 Alpha virt. eigenvalues --    0.70281   0.70442   0.70506   0.70740   0.70949
 Alpha virt. eigenvalues --    0.71228   0.71391   0.71729   0.71881   0.72149
 Alpha virt. eigenvalues --    0.72539   0.72972   0.73392   0.73560   0.73859
 Alpha virt. eigenvalues --    0.74112   0.74296   0.74509   0.74676   0.74937
 Alpha virt. eigenvalues --    0.75176   0.75641   0.75923   0.76083   0.76246
 Alpha virt. eigenvalues --    0.76506   0.76817   0.77173   0.77437   0.77762
 Alpha virt. eigenvalues --    0.77942   0.78116   0.78583   0.79128   0.79376
 Alpha virt. eigenvalues --    0.79471   0.79751   0.80163   0.80538   0.80934
 Alpha virt. eigenvalues --    0.81165   0.81297   0.81548   0.81695   0.82437
 Alpha virt. eigenvalues --    0.82846   0.83947   0.84335   0.84459   0.84753
 Alpha virt. eigenvalues --    0.85624   0.86286   0.86342   0.87544   0.87736
 Alpha virt. eigenvalues --    0.88159   0.89380   0.90760   0.91524   0.94222
 Alpha virt. eigenvalues --    0.94469   0.95523   0.97837   1.01432   1.02306
 Alpha virt. eigenvalues --    1.10386   1.11452   1.15788   1.16140
          Condensed to atoms (all electrons):
 Mulliken charges:
               1
     1  C   -0.074253
     2  C   -0.000062
     3  C   -0.061947
     4  C   -0.090052
     5  C    0.089265
     6  C   -0.012216
     7  N   -0.286130
     8  C    0.017870
     9  C    0.127897
    10  C    0.039987
    11  C   -0.115016
    12  C   -0.105576
    13  C    0.027909
    14  N   -0.291374
    15  C   -0.015839
    16  C   -0.108280
    17  C   -0.102125
    18  C   -0.105588
    19  C   -0.020100
    20  C   -0.110478
    21  C   -0.066474
    22  C    0.319608
    23  O   -0.276952
    24  O   -0.255431
    25  C   -0.055797
    26  C   -0.079213
    27  C   -0.109769
    28  C    0.001690
    29  C   -0.079621
    30  C   -0.061886
    31  C   -0.089996
    32  C    0.093773
    33  C   -0.014005
    34  N   -0.279370
    35  C    0.015638
    36  C    0.135149
    37  C    0.039835
    38  C   -0.116087
    39  C   -0.105465
    40  C    0.040640
    41  N   -0.080847
    42  C   -0.002906
    43  C   -0.097161
    44  C   -0.099024
    45  C   -0.095867
    46  C   -0.004138
    47  C   -0.098571
    48  C   -0.059136
    49  C    0.325082
    50  O   -0.273399
    51  O   -0.255637
    52  C   -0.055643
    53  C   -0.077509
    54  O   -0.461804
    55  H    0.064089
    56  H    0.055307
    57  H    0.058046
    58  H    0.056303
    59  H    0.050691
    60  H    0.055174
    61  H    0.048397
    62  H    0.051311
    63  H    0.052980
    64  H    0.060939
    65  H    0.055305
    66  H    0.050730
    67  H    0.050994
    68  H    0.051846
    69  H    0.064032
    70  H    0.062201
    71  H    0.056040
    72  H    0.051960
    73  H    0.067787
    74  H    0.051533
    75  H    0.064962
    76  H    0.077214
    77  H    0.074644
    78  H    0.072360
    79  H    0.055523
    80  H    0.071698
    81  H    0.076518
    82  H    0.057901
    83  H    0.058085
    84  H    0.053384
    85  H    0.057303
    86  H    0.060100
    87  H    0.053972
    88  H    0.054392
    89  H    0.049493
    90  H    0.053297
    91  H    0.046958
    92  H    0.085155
    93  H    0.055543
    94  H    0.081950
    95  H    0.057796
    96  H    0.058782
    97  H    0.046496
    98  H    0.066292
    99  H    0.091955
   100  H    0.090272
   101  H    0.059786
   102  H    0.101142
   103  H    0.045203
   104  H    0.061533
   105  H    0.076475
   106  H    0.073641
   107  H    0.070123
   108  H    0.073608
   109  H    0.072063
   110  H    0.055119
 Sum of Mulliken charges =  -0.00000
 Mulliken charges with hydrogens summed into heavy atoms:
               1
     1  C   -0.010164
     2  C   -0.000062
     3  C   -0.006640
     4  C   -0.032006
     5  C    0.089265
     6  C   -0.012216
     7  N   -0.286130
     8  C    0.017870
     9  C    0.127897
    10  C    0.096289
    11  C   -0.009151
    12  C   -0.005869
    13  C    0.027909
    14  N   -0.291374
    15  C    0.098081
    16  C   -0.002245
    17  C    0.000715
    18  C    0.020645
    19  C    0.087901
    20  C    0.008841
    21  C   -0.001512
    22  C    0.319608
    23  O   -0.276952
    24  O   -0.255431
    25  C    0.168421
    26  C    0.124526
    27  C    0.006216
    28  C    0.001690
    29  C   -0.026236
    30  C   -0.004583
    31  C   -0.029896
    32  C    0.093773
    33  C   -0.014005
    34  N   -0.279370
    35  C    0.015638
    36  C    0.135149
    37  C    0.093807
    38  C   -0.012202
    39  C   -0.005210
    40  C    0.040640
    41  N   -0.080847
    42  C    0.137792
    43  C    0.042585
    44  C    0.006254
    45  C    0.062380
    46  C    0.145920
    47  C    0.047773
    48  C    0.002397
    49  C    0.325082
    50  O   -0.273399
    51  O   -0.255637
    52  C    0.164596
    53  C    0.123281
    54  O   -0.461804
 Electronic spatial extent (au):  <R**2>=          38844.4864
 Charge=             -0.0000 electrons
 Dipole moment (field-independent basis, Debye):
    X=              2.5063    Y=              3.1041    Z=             -0.5080  Tot=              4.0218
 Quadrupole moment (field-independent basis, Debye-Ang):
   XX=           -295.7315   YY=           -308.8279   ZZ=           -287.4414
   XY=            -19.1289   XZ=             15.2913   YZ=              3.1636
 Traceless Quadrupole moment (field-independent basis, Debye-Ang):
   XX=              1.6021   YY=            -11.4943   ZZ=              9.8922
   XY=            -19.1289   XZ=             15.2913   YZ=              3.1636
 Octapole moment (field-independent basis, Debye-Ang**2):
  XXX=            174.6472  YYY=              5.3578  ZZZ=             18.8002  XYY=             54.8413
  XXY=            146.0911  XXZ=             -8.0666  XZZ=            -34.4522  YZZ=            -30.9127
  YYZ=             15.4017  XYZ=            -42.6724
 Hexadecapole moment (field-independent basis, Debye-Ang**3):
 XXXX=         -33806.9063 YYYY=          -8480.0082 ZZZZ=          -4822.7765 XXXY=           -463.4347
 XXXZ=             30.9059 YYYX=             -8.9054 YYYZ=             56.0813 ZZZX=           -186.2314
 ZZZY=             20.9870 XXYY=          -7669.5659 XXZZ=          -6465.6943 YYZZ=          -2211.7233
 XXYZ=            116.7051 YYXZ=             29.0080 ZZXY=             77.1388
 N-N= 8.095803811511D+03 E-N=-2.156816627817D+04  KE= 2.279092083114D+03
 ******************************Gaussian NBO Version 3.1******************************
             N A T U R A L   A T O M I C   O R B I T A L   A N D
          N A T U R A L   B O N D   O R B I T A L   A N A L Y S I S
 ******************************Gaussian NBO Version 3.1******************************
       /RESON  / : Allow strongly delocalized NBO set
       /NLMO   / : Form Natural Localized Molecular Orbitals
       /NMR /    : Analyze NMR Sheilding Tensor 

 Analyzing the SCF density

 Job title: Pleiokomenine_C_2                                               

 Storage needed:    355564 in NPA,    438187 in NBO,   2133784 in NLMO ( 104796000 available)
 GSVD:  LWork=     -108884 too small for GESVD, short by      536270 words or      536270 for optimal perf.


 NATURAL POPULATIONS:  Natural atomic orbital occupancies 
                                                          
   NAO  Atom  No  lang   Type(AO)    Occupancy      Energy
 ----------------------------------------------------------
     1    C    1  S      Cor( 1S)     1.99993     -10.94234
     2    C    1  S      Val( 2S)     1.07837      -0.17325
     3    C    1  px     Val( 2p)     0.98681       0.14444
     4    C    1  py     Val( 2p)     0.98127       0.16076
     5    C    1  pz     Val( 2p)     1.00942       0.02447
 
     6    C    2  S      Cor( 1S)     1.99990     -10.95426
     7    C    2  S      Val( 2S)     1.07779      -0.18093
     8    C    2  px     Val( 2p)     0.94312       0.16112
     9    C    2  py     Val( 2p)     0.95844       0.17836
    10    C    2  pz     Val( 2p)     1.00690       0.03343
 
    11    C    3  S      Cor( 1S)     1.99994     -10.94564
    12    C    3  S      Val( 2S)     1.08414      -0.18050
    13    C    3  px     Val( 2p)     0.96987       0.15551
    14    C    3  py     Val( 2p)     0.97476       0.15894
    15    C    3  pz     Val( 2p)     1.00491       0.02510
 
    16    C    4  S      Cor( 1S)     1.99993     -10.93865
    17    C    4  S      Val( 2S)     1.07197      -0.17119
    18    C    4  px     Val( 2p)     0.98965       0.14397
    19    C    4  py     Val( 2p)     0.97253       0.16358
    20    C    4  pz     Val( 2p)     1.05295       0.01278
 
    21    C    5  S      Cor( 1S)     1.99985     -10.98555
    22    C    5  S      Val( 2S)     1.05912      -0.18178
    23    C    5  px     Val( 2p)     0.88717       0.15726
    24    C    5  py     Val( 2p)     0.96565       0.16634
    25    C    5  pz     Val( 2p)     0.97583       0.02529
 
    26    C    6  S      Cor( 1S)     1.99990     -10.94396
    27    C    6  S      Val( 2S)     1.08274      -0.18451
    28    C    6  px     Val( 2p)     0.97313       0.16639
    29    C    6  py     Val( 2p)     0.94786       0.15503
    30    C    6  pz     Val( 2p)     1.01999       0.02901
 
    31    N    7  S      Cor( 1S)     1.99998     -15.26780
    32    N    7  S      Val( 2S)     1.40579      -0.59364
    33    N    7  px     Val( 2p)     1.25503      -0.04710
    34    N    7  py     Val( 2p)     1.09616       0.00420
    35    N    7  pz     Val( 2p)     1.51751      -0.16278
 
    36    C    8  S      Cor( 1S)     1.99996     -11.00555
    37    C    8  S      Val( 2S)     1.10914      -0.23087
    38    C    8  px     Val( 2p)     0.96615       0.07824
    39    C    8  py     Val( 2p)     0.96244       0.11272
    40    C    8  pz     Val( 2p)     0.94282       0.10826
 
    41    C    9  S      Cor( 1S)     1.99996     -11.04945
    42    C    9  S      Val( 2S)     1.11217      -0.25564
    43    C    9  px     Val( 2p)     0.92479       0.08640
    44    C    9  py     Val( 2p)     0.85095       0.12316
    45    C    9  pz     Val( 2p)     0.94066       0.08603
 
    46    C   10  S      Cor( 1S)     1.99993     -11.01716
    47    C   10  S      Val( 2S)     1.09787      -0.21970
    48    C   10  px     Val( 2p)     0.97675       0.09229
    49    C   10  py     Val( 2p)     0.93739       0.08543
    50    C   10  pz     Val( 2p)     0.91422       0.11333
 
    51    C   11  S      Cor( 1S)     1.99994     -10.97972
    52    C   11  S      Val( 2S)     1.10386      -0.21418
    53    C   11  px     Val( 2p)     1.01016       0.08300
    54    C   11  py     Val( 2p)     0.99170       0.08772
    55    C   11  pz     Val( 2p)     0.97958       0.08322
 
    56    C   12  S      Cor( 1S)     1.99996     -10.97754
    57    C   12  S      Val( 2S)     1.09132      -0.19971
    58    C   12  px     Val( 2p)     1.01439       0.08612
    59    C   12  py     Val( 2p)     0.97960       0.08865
    60    C   12  pz     Val( 2p)     0.98862       0.09233
 
    61    C   13  S      Cor( 1S)     1.99998     -11.00427
    62    C   13  S      Val( 2S)     1.10504      -0.22797
    63    C   13  px     Val( 2p)     0.93636       0.11274
    64    C   13  py     Val( 2p)     0.94962       0.10963
    65    C   13  pz     Val( 2p)     0.95872       0.09666
 
    66    N   14  S      Cor( 1S)     1.99999     -15.23974
    67    N   14  S      Val( 2S)     1.42819      -0.58403
    68    N   14  px     Val( 2p)     1.42980      -0.10396
    69    N   14  py     Val( 2p)     1.23081      -0.02506
    70    N   14  pz     Val( 2p)     1.19057      -0.01313
 
    71    C   15  S      Cor( 1S)     1.99993     -11.00861
    72    C   15  S      Val( 2S)     1.06960      -0.19031
    73    C   15  px     Val( 2p)     0.98796       0.07994
    74    C   15  py     Val( 2p)     0.90537       0.11689
    75    C   15  pz     Val( 2p)     0.99924       0.08272
 
    76    C   16  S      Cor( 1S)     1.99997     -10.97658
    77    C   16  S      Val( 2S)     1.08080      -0.18982
    78    C   16  px     Val( 2p)     1.01490       0.08812
    79    C   16  py     Val( 2p)     0.99491       0.09077
    80    C   16  pz     Val( 2p)     0.98423       0.09296
 
    81    C   17  S      Cor( 1S)     1.99996     -10.97925
    82    C   17  S      Val( 2S)     1.08576      -0.19467
    83    C   17  px     Val( 2p)     1.01159       0.08686
    84    C   17  py     Val( 2p)     0.98430       0.09125
    85    C   17  pz     Val( 2p)     0.98693       0.09257
 
    86    C   18  S      Cor( 1S)     1.99995     -10.97508
    87    C   18  S      Val( 2S)     1.09195      -0.19557
    88    C   18  px     Val( 2p)     1.02653       0.09174
    89    C   18  py     Val( 2p)     0.98088       0.08746
    90    C   18  pz     Val( 2p)     0.97636       0.09554
 
    91    C   19  S      Cor( 1S)     1.99994     -10.99994
    92    C   19  S      Val( 2S)     1.07217      -0.18527
    93    C   19  px     Val( 2p)     0.93220       0.10939
    94    C   19  py     Val( 2p)     0.99515       0.08688
    95    C   19  pz     Val( 2p)     0.96732       0.09342
 
    96    C   20  S      Cor( 1S)     1.99992     -10.98433
    97    C   20  S      Val( 2S)     1.09985      -0.21226
    98    C   20  px     Val( 2p)     0.96999       0.08402
    99    C   20  py     Val( 2p)     0.97319       0.09217
   100    C   20  pz     Val( 2p)     1.03070       0.07490
 
   101    C   21  S      Cor( 1S)     1.99994     -11.00836
   102    C   21  S      Val( 2S)     1.11085      -0.23900
   103    C   21  px     Val( 2p)     0.98272       0.07955
   104    C   21  py     Val( 2p)     0.99241       0.06832
   105    C   21  pz     Val( 2p)     0.99851       0.06587
 
   106    C   22  S      Cor( 1S)     1.99991     -11.11203
   107    C   22  S      Val( 2S)     1.05484      -0.26092
   108    C   22  px     Val( 2p)     0.85548       0.06878
   109    C   22  py     Val( 2p)     0.80394       0.12825
   110    C   22  pz     Val( 2p)     0.88292       0.07811
 
   111    O   23  S      Cor( 1S)     1.99999     -20.09848
   112    O   23  S      Val( 2S)     1.80820      -1.05827
   113    O   23  px     Val( 2p)     1.70656      -0.27737
   114    O   23  py     Val( 2p)     1.37722      -0.14205
   115    O   23  pz     Val( 2p)     1.41914      -0.16165
 
   116    O   24  S      Cor( 1S)     1.99999     -20.21547
   117    O   24  S      Val( 2S)     1.73005      -1.02805
   118    O   24  px     Val( 2p)     1.35354      -0.15475
   119    O   24  py     Val( 2p)     1.62421      -0.27769
   120    O   24  pz     Val( 2p)     1.55922      -0.25241
 
   121    C   25  S      Cor( 1S)     1.99984     -11.04572
   122    C   25  S      Val( 2S)     1.07700      -0.22740
   123    C   25  px     Val( 2p)     0.93423       0.05677
   124    C   25  py     Val( 2p)     1.04259       0.03696
   125    C   25  pz     Val( 2p)     0.91172       0.06895
 
   126    C   26  S      Cor( 1S)     1.99992     -11.01483
   127    C   26  S      Val( 2S)     1.06536      -0.19543
   128    C   26  px     Val( 2p)     0.97632       0.07143
   129    C   26  py     Val( 2p)     0.99755       0.06598
   130    C   26  pz     Val( 2p)     0.97746       0.07826
 
   131    C   27  S      Cor( 1S)     1.99996     -10.98236
   132    C   27  S      Val( 2S)     1.08282      -0.18739
   133    C   27  px     Val( 2p)     0.98111       0.09712
   134    C   27  py     Val( 2p)     1.01855       0.08704
   135    C   27  pz     Val( 2p)     1.00409       0.09037
 
   136    C   28  S      Cor( 1S)     1.99991     -10.95602
   137    C   28  S      Val( 2S)     1.07855      -0.18384
   138    C   28  px     Val( 2p)     0.96059       0.11066
   139    C   28  py     Val( 2p)     0.97700       0.12393
   140    C   28  pz     Val( 2p)     0.96789       0.13352
 
   141    C   29  S      Cor( 1S)     1.99992     -10.94754
   142    C   29  S      Val( 2S)     1.07763      -0.17947
   143    C   29  px     Val( 2p)     0.99635       0.08679
   144    C   29  py     Val( 2p)     0.99492       0.10530
   145    C   29  pz     Val( 2p)     0.99511       0.11566
 
   146    C   30  S      Cor( 1S)     1.99994     -10.94754
   147    C   30  S      Val( 2S)     1.08365      -0.18206
   148    C   30  px     Val( 2p)     0.98491       0.09798
   149    C   30  py     Val( 2p)     0.99105       0.10591
   150    C   30  pz     Val( 2p)     0.97392       0.13007
 
   151    C   31  S      Cor( 1S)     1.99993     -10.94114
   152    C   31  S      Val( 2S)     1.07145      -0.17274
   153    C   31  px     Val( 2p)     1.01522       0.08567
   154    C   31  py     Val( 2p)     0.99988       0.10829
   155    C   31  pz     Val( 2p)     1.00158       0.11842
 
   156    C   32  S      Cor( 1S)     1.99985     -10.98976
   157    C   32  S      Val( 2S)     1.06095      -0.18670
   158    C   32  px     Val( 2p)     0.92440       0.10775
   159    C   32  py     Val( 2p)     0.95993       0.12014
   160    C   32  pz     Val( 2p)     0.93731       0.11538
 
   161    C   33  S      Cor( 1S)     1.99990     -10.95100
   162    C   33  S      Val( 2S)     1.08640      -0.19545
   163    C   33  px     Val( 2p)     0.99529       0.09225
   164    C   33  py     Val( 2p)     0.95772       0.11672
   165    C   33  pz     Val( 2p)     0.98276       0.12224
 
   166    N   34  S      Cor( 1S)     1.99998     -15.26764
   167    N   34  S      Val( 2S)     1.39831      -0.58841
   168    N   34  px     Val( 2p)     1.18678      -0.02870
   169    N   34  py     Val( 2p)     1.36972      -0.10057
   170    N   34  pz     Val( 2p)     1.31465      -0.07071
 
   171    C   35  S      Cor( 1S)     1.99996     -11.01345
   172    C   35  S      Val( 2S)     1.10382      -0.23687
   173    C   35  px     Val( 2p)     0.94995       0.09888
   174    C   35  py     Val( 2p)     0.96595       0.09962
   175    C   35  pz     Val( 2p)     0.96903       0.07381
 
   176    C   36  S      Cor( 1S)     1.99996     -11.05053
   177    C   36  S      Val( 2S)     1.11547      -0.25711
   178    C   36  px     Val( 2p)     0.92222       0.10543
   179    C   36  py     Val( 2p)     0.91120       0.09740
   180    C   36  pz     Val( 2p)     0.87177       0.10202
 
   181    C   37  S      Cor( 1S)     1.99991     -11.03317
   182    C   37  S      Val( 2S)     1.10904      -0.24986
   183    C   37  px     Val( 2p)     0.98808       0.06225
   184    C   37  py     Val( 2p)     0.83773       0.09392
   185    C   37  pz     Val( 2p)     0.99652       0.06300
 
   186    C   38  S      Cor( 1S)     1.99993     -10.97925
   187    C   38  S      Val( 2S)     1.10923      -0.21838
   188    C   38  px     Val( 2p)     1.00970       0.07852
   189    C   38  py     Val( 2p)     0.99053       0.08770
   190    C   38  pz     Val( 2p)     0.97504       0.08891
 
   191    C   39  S      Cor( 1S)     1.99996     -10.98006
   192    C   39  S      Val( 2S)     1.09094      -0.20177
   193    C   39  px     Val( 2p)     1.01814       0.08323
   194    C   39  py     Val( 2p)     0.97826       0.08650
   195    C   39  pz     Val( 2p)     0.98746       0.08874
 
   196    C   40  S      Cor( 1S)     1.99998     -11.01275
   197    C   40  S      Val( 2S)     1.09935      -0.22728
   198    C   40  px     Val( 2p)     0.93116       0.10761
   199    C   40  py     Val( 2p)     0.95526       0.09969
   200    C   40  pz     Val( 2p)     0.95441       0.10276
 
   201    N   41  S      Cor( 1S)     1.99999     -15.41696
   202    N   41  S      Val( 2S)     1.39146      -0.65614
   203    N   41  px     Val( 2p)     1.19910      -0.12071
   204    N   41  py     Val( 2p)     1.18165      -0.10598
   205    N   41  pz     Val( 2p)     1.19395      -0.11072
 
   206    C   42  S      Cor( 1S)     1.99992     -11.03761
   207    C   42  S      Val( 2S)     1.09108      -0.23430
   208    C   42  px     Val( 2p)     1.00493       0.05143
   209    C   42  py     Val( 2p)     1.01257       0.05356
   210    C   42  pz     Val( 2p)     0.84115       0.09356
 
   211    C   43  S      Cor( 1S)     1.99995     -10.99092
   212    C   43  S      Val( 2S)     1.08735      -0.20493
   213    C   43  px     Val( 2p)     0.95061       0.09499
   214    C   43  py     Val( 2p)     1.00415       0.07811
   215    C   43  pz     Val( 2p)     1.02138       0.08121
 
   216    C   44  S      Cor( 1S)     1.99994     -10.98719
   217    C   44  S      Val( 2S)     1.09178      -0.20568
   218    C   44  px     Val( 2p)     1.01046       0.08149
   219    C   44  py     Val( 2p)     0.97887       0.08956
   220    C   44  pz     Val( 2p)     0.98132       0.08861
 
   221    C   45  S      Cor( 1S)     1.99993     -10.98764
   222    C   45  S      Val( 2S)     1.09851      -0.20984
   223    C   45  px     Val( 2p)     0.99790       0.08653
   224    C   45  py     Val( 2p)     0.98099       0.07953
   225    C   45  pz     Val( 2p)     0.98691       0.08789
 
   226    C   46  S      Cor( 1S)     1.99993     -11.03159
   227    C   46  S      Val( 2S)     1.09478      -0.23263
   228    C   46  px     Val( 2p)     0.85093       0.09554
   229    C   46  py     Val( 2p)     1.02781       0.05224
   230    C   46  pz     Val( 2p)     0.98025       0.05619
 
   231    C   47  S      Cor( 1S)     1.99991     -10.97360
   232    C   47  S      Val( 2S)     1.10342      -0.20145
   233    C   47  px     Val( 2p)     0.98550       0.10233
   234    C   47  py     Val( 2p)     1.04216       0.09068
   235    C   47  pz     Val( 2p)     0.92970       0.10965
 
   236    C   48  S      Cor( 1S)     1.99994     -11.00253
[...]

 Contributions to Isotropic shielding for atom   95 (    32.2491 ppm):
                         Standard Origin              Atomic Origin
 NLMO      Total    Paramagnetic  Diamagnetic   Paramagnetic  Diamagnetic
   89      -0.3906        0.3901      -0.7807        -1.1207       0.7301
  102       1.5754        0.2589       1.3165         0.6073       0.9681
  103       0.3032        1.5612      -1.2579        -0.5771       0.8803
  104       0.0671        1.3409      -1.2738        -0.8804       0.9475
  105       0.5361        3.1925      -2.6564        -0.5691       1.1052
  106       1.8964        4.0020      -2.1056         0.0501       1.8463
  107      26.3855       -0.2690      26.6545         0.5652      25.8203
  109       0.0337       -0.0574       0.0911        -1.0942       1.1278
 Sum       30.4068       10.4191      19.9877        -3.0189      33.4257

 Contributions to Isotropic shielding for atom   96 (    32.0411 ppm):
                         Standard Origin              Atomic Origin
 NLMO      Total    Paramagnetic  Diamagnetic   Paramagnetic  Diamagnetic
   89      -0.4978        0.4481      -0.9459        -1.2154       0.7176
   94      -0.2023        1.6463      -1.8487        -0.7273       0.5250
   97       1.0597        1.4959      -0.4362         0.0899       0.9697
   98      -0.4076        2.0764      -2.4840        -1.4028       0.9952
  105       0.5468        3.2631      -2.7163        -0.5348       1.0816
  106       0.0699        0.7956      -0.7257        -1.0440       1.1140
  107       0.3240        1.0869      -0.7628        -0.5371       0.8612
  108      26.4882       -0.4412      26.9294         0.7495      25.7387
  109       1.8667        3.3744      -1.5077         0.1410       1.7258
 Sum       29.2478       13.7456      15.5021        -4.4810      33.7288

 Contributions to Isotropic shielding for atom   97 (    32.5796 ppm):
                         Standard Origin              Atomic Origin
 NLMO      Total    Paramagnetic  Diamagnetic   Paramagnetic  Diamagnetic
   89      -0.4837        0.5127      -0.9963        -1.0967       0.6130
   90      -0.1375        1.3339      -1.4713        -0.8101       0.6727
   94      -0.2523        1.0014      -1.2537        -1.2004       0.9481
   97       2.0051       -1.4263       3.4314         1.0519       0.9532
  102       0.2332       -0.8727       1.1059        -0.2959       0.5290
  105       1.2735        0.2603       1.0132         0.1339       1.1397
  107       0.0495        0.0371       0.0124        -0.9731       1.0226
  108       1.4351        4.2797      -2.8446        -0.4074       1.8425
  109      26.5717        0.1590      26.4127         0.4963      26.0754
 Sum       30.6947        5.2851      25.4097        -3.1015      33.7962

 Contributions to Isotropic shielding for atom   98 (    32.3876 ppm):
                         Standard Origin              Atomic Origin
 NLMO      Total    Paramagnetic  Diamagnetic   Paramagnetic  Diamagnetic
   69      -0.1563       -0.6675       0.5112        -1.0099       0.8535
   71      -0.0268       -1.0361       1.0094        -1.0501       1.0233
   80       0.3109       -1.0458       1.3568        -0.7848       1.0957
   81       0.2909       -0.8463       1.1372        -0.5150       0.8059
   85       1.1586        0.5039       0.6546         0.5358       0.6227
   89       0.4570       -0.6622       1.1192        -0.4836       0.9405
  110       1.3360       -0.8926       2.2286         0.5151       0.8209
  111      25.9222        0.6320      25.2902         0.4247      25.4974
  112       1.9306        0.3767       1.5540         0.0176       1.9130
  193      -0.4300        0.6555      -1.0856         0.3823      -0.8123
 Sum       30.7930       -2.9824      33.7754        -1.9677      32.7607

 Contributions to Isotropic shielding for atom   99 (    30.4970 ppm):
                         Standard Origin              Atomic Origin
 NLMO      Total    Paramagnetic  Diamagnetic   Paramagnetic  Diamagnetic
   85       0.2774        2.0937      -1.8164        -0.5363       0.8137
   87       0.0515       -1.1323       1.1838        -0.7978       0.8493
   89       0.5211       -0.6738       1.1948        -0.3589       0.8800
   98       0.1339       -0.9742       1.1081        -0.5334       0.6673
  101       0.0644       -0.9937       1.0581        -0.4707       0.5351
  110       0.8890        1.1442      -0.2551         0.1622       0.7268
  111       2.0769       -0.2548       2.3317         0.1647       1.9122
  112      25.5193        0.0848      25.4345         0.5276      24.9917
  115       0.0519       -0.9680       1.0199        -0.5303       0.5823
  118       0.5501       -1.5187       2.0688        -0.2685       0.8186
  122       0.9897       -1.0942       2.0839        -0.0333       1.0230
  123       0.3465       -1.1915       1.5380        -0.4399       0.7864
  124       0.0514       -1.4968       1.5482        -0.7679       0.8193
  125       0.1613       -1.1206       1.2819        -0.5488       0.7101
  193      -0.6285        1.3316      -1.9600         0.4863      -1.1147
  194      -0.7675       -1.1896       0.4221        -0.7392      -0.0282
  195      -0.1677        1.3109      -1.4786         0.8689      -1.0366
 Sum       30.1207       -6.6429      36.7637        -3.8154      33.9362

 Contributions to Isotropic shielding for atom  100 (    30.6299 ppm):
                         Standard Origin              Atomic Origin
 NLMO      Total    Paramagnetic  Diamagnetic   Paramagnetic  Diamagnetic
   89       0.9218       -0.0840       1.0058         0.9155       0.0063
  100      -0.2355        2.0406      -2.2761        -1.0036       0.7681
  101       0.1590       -1.2622       1.4212        -0.8591       1.0182
  103      -0.0484       -1.6844       1.6360        -0.8732       0.8248
  104       0.2377       -0.8134       1.0511        -0.3714       0.6091
  110       1.1263       -0.2553       1.3815         0.1515       0.9748
  112       0.1444       -0.1451       0.2895        -0.8845       1.0289
  113      25.6987        0.5708      25.1279         0.8364      24.8622
  114       1.9596       -0.3194       2.2790         0.2630       1.6966
  195       0.0117        1.2202      -1.2085         0.8406      -0.8289
 Sum       29.9752       -0.7323      30.7075        -0.9849      30.9601

 Contributions to Isotropic shielding for atom  101 (    31.1340 ppm):
                         Standard Origin              Atomic Origin
 NLMO      Total    Paramagnetic  Diamagnetic   Paramagnetic  Diamagnetic
   71       0.0895       -0.6548       0.7443        -1.0566       1.1461
   84       0.1654       -0.9389       1.1043        -0.6524       0.8178
   89       1.0915       -0.8037       1.8953         0.1978       0.8937
   90      -0.0718       -1.0669       0.9951        -0.7936       0.7218
   99       0.6117       -0.5255       1.1372        -0.0811       0.6927
  100       0.2093        1.5593      -1.3499        -0.2337       0.4431
  103       0.1469       -1.1037       1.2506        -0.5854       0.7323
  104       0.0234       -1.6837       1.7072        -0.7792       0.8026
  110       1.2411       -1.0521       2.2932         0.4198       0.8214
  113       1.6635       -0.2231       1.8866        -0.1721       1.8356
  114      26.2106        0.6023      25.6083         0.5988      25.6117
 Sum       31.3812       -5.8909      37.2721        -3.1376      34.5189

 Contributions to Isotropic shielding for atom  102 (    29.9944 ppm):
                         Standard Origin              Atomic Origin
 NLMO      Total    Paramagnetic  Diamagnetic   Paramagnetic  Diamagnetic
   89      -0.6673        0.4141      -1.0815        -1.5580       0.8907
   97      -0.2013        0.7911      -0.9925        -1.0137       0.8124
   98       1.4706       -0.3899       1.8605         0.5800       0.8905
  106      -0.2417       -1.2061       0.9644        -0.8040       0.5623
  115       1.3677       -0.3890       1.7567         0.4837       0.8840
  116      25.2885       -0.0006      25.2891         0.6465      24.6419
  117       0.9638        4.1433      -3.1795        -0.9536       1.9174
  118      -0.5716        0.5864      -1.1579        -1.7271       1.1556
  119       0.3386        1.3561      -1.0175        -0.1506       0.4892
  120      -0.2610       -0.5024       0.2415        -1.1487       0.8878
  121       0.2951       -0.3485       0.6436        -1.2751       1.5702
 Sum       27.7813        4.4544      23.3269        -6.9207      34.7020

 Contributions to Isotropic shielding for atom  103 (    31.6851 ppm):
                         Standard Origin              Atomic Origin
 NLMO      Total    Paramagnetic  Diamagnetic   Paramagnetic  Diamagnetic
   86      -0.1223        0.4947      -0.6170        -1.0288       0.9065
   94      -0.3358        1.3397      -1.6755        -1.2961       0.9603
   97      -0.2564        1.6504      -1.9068        -0.8758       0.6194
   98       0.7787        2.2039      -1.4253        -0.2027       0.9814
  108      -0.0302       -1.3897       1.3595        -0.8236       0.7934
  115       0.7456        2.7837      -2.0381        -0.3455       1.0911
  116       1.8018        4.0827      -2.2809        -0.2373       2.0391
  117      26.9803       -0.8457      27.8260         0.8966      26.0837
  118      -0.4396        0.7451      -1.1846        -0.7634       0.3238
  119      -0.1758        0.9981      -1.1738        -1.2985       1.1228
  120      -0.3505       -0.1511      -0.1994        -1.1272       0.7768
  121       0.0901        0.3045      -0.2143        -1.1143       1.2044
 Sum       28.6860       12.2162      16.4698        -8.2167      36.9027

 Contributions to Isotropic shielding for atom  104 (    31.3376 ppm):
                         Standard Origin              Atomic Origin
 NLMO      Total    Paramagnetic  Diamagnetic   Paramagnetic  Diamagnetic
   81      -0.5972        1.2123      -1.8095        -1.3016       0.7044
   82      -0.1611        0.5642      -0.7253        -1.1362       0.9751
   86      -0.5112        1.8509      -2.3621        -1.6464       1.1353
   87       1.4613        1.0844       0.3769         0.4633       0.9980
   93      -0.0751       -1.6207       1.5456        -0.8457       0.7706
  115       0.6006        4.8221      -4.2215        -0.6309       1.2315
  117      -0.0598       -1.0140       0.9542        -1.2092       1.1494
  118       0.5308        4.5062      -3.9754        -0.6458       1.1766
  119      26.2564       -0.9650      27.2214         0.5317      25.7247
  120      -0.5761        0.1959      -0.7720        -1.4014       0.8253
  121      -0.3645        1.0828      -1.4473        -1.3473       0.9828
  122      -0.1548       -0.6749       0.5201        -1.2230       1.0682
  128      -0.2271       -1.6949       1.4679        -0.7024       0.4753
  191       0.2841       -1.0075       1.2916         0.4438      -0.1597
 Sum       26.4065        8.3417      18.0648       -10.6511      37.0576

 Contributions to Isotropic shielding for atom  105 (    30.4796 ppm):
                         Standard Origin              Atomic Origin
 NLMO      Total    Paramagnetic  Diamagnetic   Paramagnetic  Diamagnetic
  121       0.5365       -0.9976       1.5341        -1.0351       1.5717
  122      -0.3076        0.6485      -0.9561        -1.1440       0.8364
  123       1.7449       -2.4227       4.1676         0.3272       1.4177
  124      25.9701        0.8307      25.1394         0.8300      25.1401
  125       1.8789       -0.7625       2.6414        -0.1538       2.0327
  126       1.0881        2.3415      -1.2533        -0.7802       1.8683
 Sum       30.9110       -0.3621      31.2731        -1.9559      32.8669

 Contributions to Isotropic shielding for atom  106 (    30.6413 ppm):
                         Standard Origin              Atomic Origin
 NLMO      Total    Paramagnetic  Diamagnetic   Paramagnetic  Diamagnetic
  121       0.2544       -0.2468       0.5012        -0.7854       1.0398
  123       1.8947       -2.7818       4.6765        -0.1996       2.0943
  124       1.7522       -1.0918       2.8440        -0.2435       1.9957
  125      25.8903        0.6164      25.2739         0.5882      25.3021
  126       1.0004        1.8257      -0.8254        -0.9803       1.9807
 Sum       30.7920       -1.6784      32.4703        -1.6205      32.4125

 Contributions to Isotropic shielding for atom  107 (    30.5552 ppm):
                         Standard Origin              Atomic Origin
 NLMO      Total    Paramagnetic  Diamagnetic   Paramagnetic  Diamagnetic
  120      -0.2541       -0.3817       0.1275        -1.1930       0.9389
  121       0.1949       -0.1022       0.2971        -1.3143       1.5093
  122      -1.1257        0.8215      -1.9472        -1.8876       0.7619
  123       0.2676        2.9414      -2.6738        -1.2195       1.4871
  124       1.3999        1.7040      -0.3042        -0.4702       1.8701
  125       1.5212        2.0983      -0.5771        -0.5088       2.0300
  126      26.4081        0.4369      25.9712         1.1124      25.2957
  193       1.1240       -1.3354       2.4594         1.1881      -0.0641
 Sum       29.5359        6.1829      23.3530        -4.2929      33.8288

 Contributions to Isotropic shielding for atom  108 (    30.6847 ppm):
                         Standard Origin              Atomic Origin
 NLMO      Total    Paramagnetic  Diamagnetic   Paramagnetic  Diamagnetic
   75      -0.5229        0.5213      -1.0442        -1.2360       0.7131
   76      -0.6841        0.1311      -0.8152        -2.0436       1.3595
   79      -0.2200        0.7888      -1.0088        -0.8538       0.6338
   82       1.9420       -2.1475       4.0895         0.7225       1.2195
  127      25.8750        0.3795      25.4955         0.5438      25.3312
  128       1.6241        2.3840      -0.7599        -0.3457       1.9698
  129       1.4310        1.8620      -0.4310        -0.3699       1.8010
 Sum       29.4451        3.9193      25.5258        -3.5827      33.0278

 Contributions to Isotropic shielding for atom  109 (    31.2653 ppm):
                         Standard Origin              Atomic Origin
 NLMO      Total    Paramagnetic  Diamagnetic   Paramagnetic  Diamagnetic
   76      -0.4722        0.0660      -0.5382        -1.3125       0.8403
   81      -0.6361        1.6531      -2.2891        -1.3711       0.7351
   82       1.1122       -0.4684       1.5806        -0.0988       1.2110
   87      -0.1786        0.7550      -0.9336        -1.0848       0.9062
   93      -0.0809       -1.1046       1.0237        -0.6747       0.5937
  119      -0.2106       -1.7156       1.5050        -0.7247       0.5142
  127       1.8382        2.3164      -0.4782        -0.1499       1.9882
  128      26.0365        0.1376      25.8989         0.6059      25.4306
  129       1.1163        2.8827      -1.7664        -0.6972       1.8135
  190       1.3252        0.0698       1.2554         1.3127       0.0125
 Sum       29.8500        4.5920      25.2580        -4.1952      34.0452

 Contributions to Isotropic shielding for atom  110 (    31.8738 ppm):
                         Standard Origin              Atomic Origin
 NLMO      Total    Paramagnetic  Diamagnetic   Paramagnetic  Diamagnetic
   75      -0.3319        0.7848      -1.1167        -0.9289       0.5970
   76      -1.0488        0.3916      -1.4403        -2.2152       1.1664
   79      -0.3739        1.1039      -1.4778        -0.9281       0.5542
   81      -0.4466        0.8790      -1.3256        -0.7015       0.2548
   82       1.4282       -1.2115       2.6397         0.6515       0.7767
   86      -0.0422        0.0249      -0.0671        -1.1137       1.0715
   93      -0.1384       -1.1377       0.9994        -0.9456       0.8072
  127       1.8978        2.0564      -0.1586        -0.0003       1.8982
  128       1.7664        3.5881      -1.8218        -0.1351       1.9015
  129      26.6999        0.4836      26.2163         0.9841      25.7158
 Sum       29.4105        6.9630      22.4475        -5.3328      34.7433
 
 1\1\GINC-PCSN02\SP\RHF\STO-3G\C45H56N4O5\ABENIDD\30-May-2024\0\\# nmr=
 giao hf/sto-3g pop=nbo geom=connectivity\\Pleiokomenine_C_2\\0,1\C,0,0
 .,0.,0.\C,0,1.4016,0.,0.\C,0,2.0858,1.2336,0.\C,0,1.3934,2.4532,-0.029
 8\C,0,0.0102,2.4402,-0.0729\C,0,-0.6699,1.2124,-0.0418\N,0,-0.8792,3.5
 443,-0.1623\C,0,-2.154,1.4746,-0.0052\C,0,-2.1241,2.9078,-0.6676\C,0,-
 3.1202,0.574,-0.7903\C,0,-2.019,2.7419,-2.2471\C,0,-3.2381,2.0026,-2.8
 124\C,0,-4.0865,1.4671,-1.6425\N,0,-3.7511,-0.2734,0.2272\C,0,-4.9566,
 -0.9639,-0.2125\C,0,-5.9506,-0.1084,-0.9964\C,0,-5.2645,0.6232,-2.1494
 \C,0,-2.5868,1.3141,1.4719\C,0,-3.8808,0.5105,1.4471\C,0,-4.6033,2.739
 9,-0.8881\C,0,-3.4406,3.6752,-0.4552\C,0,-3.6706,4.2809,0.9181\O,0,-4.
 4798,3.8712,1.7413\O,0,-2.9069,5.3967,1.0865\C,0,-3.0413,6.01,2.3683\C
 ,0,-0.3551,4.7597,-0.7663\C,0,2.1713,-1.3033,0.0421\C,0,1.8119,-2.2594
 ,-1.0768\C,0,0.8382,-3.2476,-0.8716\C,0,2.3953,-2.108,-2.3539\C,0,2.03
 4,-2.9363,-3.4243\C,0,1.0775,-3.9116,-3.2159\C,0,0.4697,-4.0402,-1.946
 1\N,0,0.5861,-4.8783,-4.1362\C,0,-0.6486,-5.0511,-2.0755\C,0,0.0077,-5
 .895,-3.2229\C,0,-1.0249,-6.0123,-0.962\C,0,1.2392,-6.746,-2.6139\C,0,
 0.8179,-7.5725,-1.3952\C,0,-0.7095,-7.4899,-1.2397\N,0,-2.5128,-5.8132
 ,-0.728\C,0,-2.8532,-6.4103,0.5963\C,0,-2.5868,-7.928,0.5248\C,0,-1.18
 99,-8.3108,-0.0175\C,0,-1.9176,-4.1634,-2.2398\C,0,-2.6606,-4.3479,-0.
 9033\C,0,-1.28,-7.9795,-2.6158\C,0,-0.913,-7.0004,-3.7902\C,0,-2.133,-
 6.6334,-4.6201\O,0,-3.0457,-7.418,-4.861\O,0,-2.0192,-5.4134,-5.2052\C
 ,0,-3.128,-5.0489,-6.0255\C,0,1.4329,-5.2514,-5.2536\O,0,-3.3359,-6.38
 34,-1.6644\H,0,-0.5676,-0.924,0.0391\H,0,3.1734,1.2532,0.0226\H,0,1.94
 84,3.3842,-0.0279\H,0,-2.5699,-0.094,-1.467\H,0,-1.9429,3.7228,-2.7338
 \H,0,-1.1096,2.2023,-2.5397\H,0,-3.8287,2.6803,-3.4417\H,0,-2.9038,1.1
 886,-3.4676\H,0,-4.6432,-1.7934,-0.8586\H,0,-5.4607,-1.4338,0.6407\H,0
 ,-6.7413,-0.7522,-1.3992\H,0,-6.4441,0.6048,-0.3274\H,0,-4.9068,-0.118
 6,-2.8754\H,0,-5.994,1.2495,-2.6765\H,0,-2.6779,2.2506,2.0204\H,0,-1.8
 521,0.724,2.039\H,0,-3.9526,-0.1362,2.3283\H,0,-4.7561,1.162,1.4505\H,
 0,-5.2467,2.4703,-0.0504\H,0,-5.2603,3.3108,-1.5602\H,0,-3.4686,4.5395
 ,-1.1366\H,0,-2.3504,6.8563,2.4127\H,0,-2.7757,5.3052,3.1626\H,0,-4.05
 98,6.3859,2.5065\H,0,0.1235,4.5662,-1.7329\H,0,0.3763,5.2317,-0.1015\H
 ,0,-1.155,5.4883,-0.9292\H,0,1.9982,-1.7812,1.0152\H,0,3.2514,-1.1115,
 0.0001\H,0,0.3486,-3.3462,0.0914\H,0,3.1304,-1.3233,-2.5228\H,0,2.4962
 ,-2.7959,-4.3943\H,0,-0.5409,-5.6914,-0.0274\H,0,2.0962,-6.1223,-2.331
 6\H,0,1.6345,-7.4194,-3.3871\H,0,1.1508,-8.611,-1.5132\H,0,1.3217,-7.1
 875,-0.4993\H,0,-3.9104,-6.1947,0.7832\H,0,-2.238,-5.9158,1.3549\H,0,-
 3.3426,-8.3965,-0.118\H,0,-2.7218,-8.3652,1.5208\H,0,-1.1691,-9.3828,-
 0.2481\H,0,-0.4781,-8.1635,0.8063\H,0,-1.7295,-3.0988,-2.4215\H,0,-2.5
 552,-4.509,-3.0536\H,0,-3.7242,-4.0992,-0.9508\H,0,-2.1728,-3.8513,-0.
 0587\H,0,-2.3504,-8.192,-2.5663\H,0,-0.8348,-8.959,-2.845\H,0,-0.3196,
 -7.5826,-4.5123\H,0,-4.0584,-5.0655,-5.449\H,0,-2.963,-4.0288,-6.3831\
 H,0,-3.1954,-5.7132,-6.8926\H,0,1.5711,-4.4031,-5.9325\H,0,0.9648,-6.0
 499,-5.8376\H,0,2.4177,-5.6008,-4.9251\\Version=ES64L-G16RevB.01\State
 =1-A\HF=-2300.1991924\RMSD=3.917e-09\Dipole=1.0614151,1.1080241,0.3864
 621\Quadrupole=-3.7218762,2.1317054,1.5901708,-15.8541557,-3.5229415,-
 11.273041\PG=C01 [X(C45H56N4O5)]\\@


 K N O W I N G  IS A BARRIER WHICH PREVENTS LEARNING

                     -- TEACHING OF THE BENE GESSERIT
 Job cpu time:       0 days  0 hours 11 minutes 23.8 seconds.
 Elapsed time:       0 days  0 hours  1 minutes 54.2 seconds.
 File lengths (MBytes):  RWF=     67 Int=      0 D2E=      0 Chk=     10 Scr=      1
 Normal termination of Gaussian 16 at Thu May 30 09:47:21 2024.
