 Entering Gaussian System, Link 0=g16
 Input=2_pleiokomenine_2a_c_23.gjf
 Output=2_pleiokomenine_2a_c_23.log
 Initial command:
 /opt/gaussian/g16/l1.exe "/data/abenidd/Elvis/pleiokomenine_C/NMR_HF/2a/2_pleiokomenine_2a_c_23/Gau-28176.inp" -scrdir="/data/abenidd/Elvis/pleiokomenine_C/NMR_HF/2a/2_pleiokomenine_2a_c_23/"
 Entering Link 1 = /opt/gaussian/g16/l1.exe PID=     28178.
  
 Copyright (c) 1988-2017, Gaussian, Inc.  All Rights Reserved.
  
 This is part of the Gaussian(R) 16 program.  It is based on
 the Gaussian(R) 09 system (copyright 2009, Gaussian, Inc.),
 the Gaussian(R) 03 system (copyright 2003, Gaussian, Inc.),
 the Gaussian(R) 98 system (copyright 1998, Gaussian, Inc.),
 the Gaussian(R) 94 system (copyright 1995, Gaussian, Inc.),
 the Gaussian 92(TM) system (copyright 1992, Gaussian, Inc.),
 the Gaussian 90(TM) system (copyright 1990, Gaussian, Inc.),
 the Gaussian 88(TM) system (copyright 1988, Gaussian, Inc.),
 the Gaussian 86(TM) system (copyright 1986, Carnegie Mellon
 University), and the Gaussian 82(TM) system (copyright 1983,
 Carnegie Mellon University). Gaussian is a federally registered
 trademark of Gaussian, Inc.
  
 This software contains proprietary and confidential information,
 including trade secrets, belonging to Gaussian, Inc.
  
 This software is provided under written license and may be
 used, copied, transmitted, or stored only in accord with that
 written license.
  
 The following legend is applicable only to US Government
 contracts under FAR:
  
                    RESTRICTED RIGHTS LEGEND
  
 Use, reproduction and disclosure by the US Government is
 subject to restrictions as set forth in subparagraphs (a)
 and (c) of the Commercial Computer Software - Restricted
 Rights clause in FAR 52.227-19.
  
 Gaussian, Inc.
 340 Quinnipiac St., Bldg. 40, Wallingford CT 06492
  
  
 ---------------------------------------------------------------
 Warning -- This program may not be used in any manner that
 competes with the business of Gaussian, Inc. or will provide
 assistance to any competitor of Gaussian, Inc.  The licensee
 of this program is prohibited from giving any competitor of
 Gaussian, Inc. access to this program.  By using this program,
 the user acknowledges that Gaussian, Inc. is engaged in the
 business of creating and licensing software in the field of
 computational chemistry and represents and warrants to the
 licensee that it is not a competitor of Gaussian, Inc. and that
 it will not use this program in any manner prohibited above.
 ---------------------------------------------------------------
  

 Cite this work as:
 Gaussian 16, Revision B.01,
 M. J. Frisch, G. W. Trucks, H. B. Schlegel, G. E. Scuseria, 
 M. A. Robb, J. R. Cheeseman, G. Scalmani, V. Barone, 
 G. A. Petersson, H. Nakatsuji, X. Li, M. Caricato, A. V. Marenich, 
 J. Bloino, B. G. Janesko, R. Gomperts, B. Mennucci, H. P. Hratchian, 
 J. V. Ortiz, A. F. Izmaylov, J. L. Sonnenberg, D. Williams-Young, 
 F. Ding, F. Lipparini, F. Egidi, J. Goings, B. Peng, A. Petrone, 
 T. Henderson, D. Ranasinghe, V. G. Zakrzewski, J. Gao, N. Rega, 
 G. Zheng, W. Liang, M. Hada, M. Ehara, K. Toyota, R. Fukuda, 
 J. Hasegawa, M. Ishida, T. Nakajima, Y. Honda, O. Kitao, H. Nakai, 
 T. Vreven, K. Throssell, J. A. Montgomery, Jr., J. E. Peralta, 
 F. Ogliaro, M. J. Bearpark, J. J. Heyd, E. N. Brothers, K. N. Kudin, 
 V. N. Staroverov, T. A. Keith, R. Kobayashi, J. Normand, 
 K. Raghavachari, A. P. Rendell, J. C. Burant, S. S. Iyengar, 
 J. Tomasi, M. Cossi, J. M. Millam, M. Klene, C. Adamo, R. Cammi, 
 J. W. Ochterski, R. L. Martin, K. Morokuma, O. Farkas, 
 J. B. Foresman, and D. J. Fox, Gaussian, Inc., Wallingford CT, 2016.
 
 ******************************************
 Gaussian 16:  ES64L-G16RevB.01 20-Dec-2017
                30-May-2024 
 ******************************************
 %nprocshared=8
 Will use up to    8 processors via shared memory.
 ----------------------------------------------
 # nmr=giao hf/sto-3g pop=nbo geom=connectivity
 ----------------------------------------------
 1/38=1,57=2,172=1/1;
 2/12=2,17=6,18=5,40=1/2;
 3/6=3,11=9,25=1,30=1/1,2,3,8;
 4//1;
 5/5=2,38=5/2;
 8/6=1,10=90,11=11/1;
 10/13=100,45=16/2;
 6/7=2,8=2,9=2,10=2,28=1,40=1,64=1/1,7;
 99/9=1/99;
 -----------------
 Pleiokomenine_C_2
 -----------------
 Symbolic Z-matrix:
 Charge =  0 Multiplicity = 1
 C                     0.        0.        0. 
 C                     1.4033    0.        0. 
 C                     2.0991    1.2277    0. 
 C                     1.4166    2.4508    0.0198 
 C                     0.034     2.4445    0.036 
 C                    -0.6604    1.217     0.042 
 N                    -0.8475    3.5532    0.0478 
 C                    -2.1327    1.5122    0.2064 
 C                    -2.1218    2.9561   -0.4141 
 C                    -3.2017    0.6759   -0.4992 
 C                    -2.0638    2.84     -2.0044 
 C                    -3.2591    2.0636   -2.5592 
 C                    -4.1135    1.5426   -1.3976 
 N                    -4.0499    0.1908    0.5912 
 C                    -4.9811   -0.8278    0.1663 
 C                    -5.968    -0.1503   -0.7999 
 C                    -5.275     0.6586   -1.9128 
 C                    -2.4383    1.285     1.7122 
 C                    -3.1947   -0.0456    1.7294 
 C                    -4.617     2.7989   -0.6022 
 C                    -3.435     3.7209   -0.1511 
 C                    -3.6366    4.3079    1.2396 
 O                    -2.7691    4.5198    2.0742 
 O                    -4.9444    4.677     1.4017 
 C                    -5.2333    5.2605    2.6729 
 C                    -0.3717    4.8294   -0.448 
 C                     2.1657   -1.3101    0.0484 
 C                     1.8153   -2.1983    1.2289 
 C                     1.6048   -1.6539    2.5055 
 C                     1.7026   -3.5945    1.0442 
 C                     1.3612   -4.4489    2.1017 
 C                     1.1383   -3.9034    3.3511 
 C                     1.2414   -2.5063    3.5345 
 N                     0.822    -4.5702    4.5647 
 C                     0.7804   -2.195     4.9413 
 C                     1.2198   -3.562     5.5747 
 C                     1.3849   -1.088     5.7862 
 C                     2.8298   -3.605     5.6859 
 C                     3.3874   -2.3686    6.3975 
 C                     2.2179   -1.563     6.9858 
 N                     0.2156   -0.2329    6.2491 
 C                     0.7633    1.0718    6.7248 
 C                     1.6645    0.8016    7.947 
 C                     2.7243   -0.3043    7.732 
 C                    -0.6964   -1.7399    4.7423 
 C                    -0.6559   -0.2319    5.0483 
 C                     1.4409   -2.5819    7.8885 
 C                     0.7751   -3.7326    7.0453 
 C                    -0.7143   -3.9175    7.2961 
 O                    -1.5254   -4.3451    6.485 
 O                    -1.0073   -3.703     8.613 
 C                    -2.3974   -3.7925    8.9195 
 C                     1.1676   -5.9709    4.701 
 O                    -0.5397   -0.7652    7.2655 
 H                    -0.5546   -0.9337    0.0256 
 H                     3.1871    1.2378    0.0015 
 H                     1.9754    3.3794    0.0317 
 H                    -2.7504   -0.1545   -1.0592 
 H                    -1.1412    2.3584   -2.3516 
 H                    -2.0464    3.8407   -2.4563 
 H                    -3.8531    2.7111   -3.2161 
 H                    -2.8987    1.2364   -3.1834 
 H                    -4.4728   -1.6693   -0.319 
 H                    -5.5425   -1.2251    1.0193 
 H                    -6.6205   -0.9075   -1.2497 
 H                    -6.6207    0.524    -0.2302 
 H                    -4.8817   -0.0567   -2.6475 
 H                    -6.0176    1.2687   -2.4406 
 H                    -1.5548    1.2423    2.3583 
 H                    -3.099     2.0507    2.1219 
 H                    -2.5279   -0.9028    1.5876 
 H                    -3.7544   -0.1707    2.661 
 H                    -5.2191    2.4877    0.2591 
 H                    -5.2925    3.3859   -1.239 
 H                    -3.4454    4.6118   -0.7973 
 H                    -4.9952    4.561     3.4805 
 H                    -6.3042    5.4785    2.7094 
 H                    -4.6842    6.1991    2.7959 
 H                     0.0146    4.7527   -1.4702 
 H                     0.4212    5.2226    0.1971 
 H                    -1.1798    5.5677   -0.4436 
 H                     1.9682   -1.8381   -0.8934 
 H                     3.2463   -1.1229    0.0818 
 H                     1.6685   -0.583     2.6699 
 H                     1.8708   -4.028     0.0601 
 H                     1.2734   -5.515     1.9282 
 H                     1.988    -0.4294    5.1434 
 H                     3.3278   -3.7006    4.7133 
 H                     3.1318   -4.5065    6.2371 
 H                     4.095    -2.673     7.1784 
 H                     3.9583   -1.7605    5.684 
 H                    -0.0928    1.7025    6.9863 
 H                     1.3145    1.5265    5.8952 
 H                     1.0376    0.5128    8.7997 
 H                     2.1651    1.732     8.2388 
 H                     3.5404    0.145     7.1497 
 H                     3.1598   -0.5852    8.6985 
 H                    -1.1097   -1.9072    3.7408 
 H                    -1.3756   -2.2275    5.4405 
 H                    -0.1597    0.3566    4.2703 
 H                    -1.629     0.1936    5.3089 
 H                     0.74     -2.0782    8.5567 
 H                     2.16     -3.0481    8.5784 
 H                     1.1945   -4.6787    7.4207 
 H                    -2.5337   -3.4978    9.9637 
 H                    -2.979    -3.1105    8.2909 
 H                    -2.7467   -4.8228    8.8019 
 H                     0.9102   -6.3328    5.7012 
 H                     0.6006   -6.5799    3.9888 
 H                     2.2364   -6.147     4.5387 
 
 Stoichiometry    C45H56N4O5
 Framework group  C1[X(C45H56N4O5)]
 Deg. of freedom   324
 Full point group                 C1      NOp   1
 Largest Abelian subgroup         C1      NOp   1
 Largest concise Abelian subgroup C1      NOp   1
                         Standard orientation:                         
 ---------------------------------------------------------------------
 Center     Atomic      Atomic             Coordinates (Angstroms)
 Number     Number       Type             X           Y           Z
 ---------------------------------------------------------------------
      1          6           0       -1.810768   -2.354162   -0.347591
      2          6           0       -1.212050   -3.141529   -1.343001
      3          6           0       -1.617706   -2.991871   -2.686292
      4          6           0       -2.594913   -2.057012   -3.051363
      5          6           0       -3.169848   -1.272671   -2.068437
      6          6           0       -2.759507   -1.418820   -0.727078
      7          7           0       -4.172099   -0.282091   -2.212103
      8          6           0       -3.441442   -0.347604    0.091030
      9          6           0       -4.697609   -0.153648   -0.833313
     10          6           0       -3.913167   -0.610457    1.522258
     11          6           0       -5.720241   -1.352378   -0.581979
     12          6           0       -6.174512   -1.412275    0.877265
     13          6           0       -5.427353   -0.347561    1.688986
     14          7           0       -3.233773    0.416646    2.314230
     15          6           0       -3.345794    0.193110    3.736447
     16          6           0       -4.831242    0.367374    4.096443
     17          6           0       -5.777897   -0.445988    3.193447
     18          6           0       -2.387186    0.779782    0.264208
     19          6           0       -1.936458    0.630921    1.719411
     20          6           0       -5.803974    1.045318    1.070513
     21          6           0       -5.511323    1.104012   -0.466240
     22          6           0       -4.959213    2.450501   -0.915018
     23          8           0       -4.125813    2.642195   -1.788352
     24          8           0       -5.614862    3.460314   -0.264438
     25          6           0       -5.181692    4.770453   -0.632930
     26          6           0       -5.046618   -0.335314   -3.366778
     27          6           0       -0.103204   -4.111668   -0.983486
     28          6           0        1.082343   -3.478015   -0.277638
     29          6           0        1.575119   -2.225279   -0.675399
     30          6           0        1.703838   -4.158474    0.793301
     31          6           0        2.787738   -3.601251    1.485776
     32          6           0        3.255543   -2.360146    1.099678
     33          6           0        2.628527   -1.674816    0.035099
     34          7           0        4.352132   -1.625024    1.623683
     35          6           0        3.239002   -0.292772   -0.041003
     36          6           0        4.652321   -0.696510    0.508981
     37          6           0        3.455210    0.447460   -1.348686
     38          6           0        5.441715   -1.540795   -0.618119
     39          6           0        5.470507   -0.810796   -1.964317
     40          6           0        4.922590    0.612284   -1.770804
     41          7           0        2.791226    1.804272   -1.172849
     42          6           0        2.611493    2.404459   -2.527833
     43          6           0        4.006607    2.636956   -3.143091
     44          6           0        4.941011    1.405082   -3.100734
     45          6           0        2.209131    0.596492    0.718095
     46          6           0        1.577814    1.451697   -0.395189
     47          6           0        5.806353    1.233007   -0.634838
     48          6           0        5.590188    0.509139    0.746347
     49          6           0        5.236195    1.439339    1.897355
     50          8           0        4.566744    1.137592    2.876841
     51          8           0        5.910773    2.621501    1.781074
     52          6           0        5.583567    3.577008    2.788185
     53          6           0        5.396557   -2.339522    2.329832
     54          8           0        3.485437    2.706599   -0.404235
     55          1           0       -1.495173   -2.435765    0.688640
     56          1           0       -1.158239   -3.596834   -3.465239
     57          1           0       -2.879533   -1.953714   -4.092045
     58          1           0       -3.637658   -1.621633    1.851579
     59          1           0       -5.294203   -2.325342   -0.856768
     60          1           0       -6.601942   -1.238809   -1.226666
     61          1           0       -7.258535   -1.254777    0.938071
     62          1           0       -5.984580   -2.416059    1.277414
     63          1           0       -2.987296   -0.802552    4.023056
     64          1           0       -2.760548    0.931453    4.295878
     65          1           0       -4.991374    0.084993    5.143365
     66          1           0       -5.096561    1.429686    4.016730
     67          1           0       -5.715352   -1.496489    3.507547
     68          1           0       -6.813500   -0.131040    3.368326
     69          1           0       -1.533293    0.718326   -0.419115
     70          1           0       -2.820280    1.774598    0.148249
     71          1           0       -1.260771   -0.219717    1.858639
     72          1           0       -1.451195    1.543163    2.078752
     73          1           0       -5.279548    1.850192    1.598113
     74          1           0       -6.874072    1.236025    1.228323
     75          1           0       -6.478138    1.048636   -0.989295
     76          1           0       -4.114211    4.895439   -0.425393
     77          1           0       -5.737772    5.492807   -0.029057
     78          1           0       -5.398361    4.961495   -1.688471
     79          1           0       -5.553841   -1.302564   -3.451363
     80          1           0       -4.481511   -0.154886   -4.287403
     81          1           0       -5.810785    0.445957   -3.305155
     82          1           0       -0.544951   -4.893507   -0.352324
     83          1           0        0.274106   -4.612205   -1.884016
     84          1           0        1.104645   -1.674659   -1.483720
     85          1           0        1.334417   -5.133592    1.105294
     86          1           0        3.238810   -4.142618    2.309084
     87          1           0        2.885453   -0.051944   -2.146588
     88          1           0        5.027702   -2.544254   -0.775471
     89          1           0        6.472471   -1.720308   -0.281898
     90          1           0        6.493515   -0.794157   -2.359715
     91          1           0        4.866392   -1.363922   -2.694996
     92          1           0        2.068486    3.345607   -2.391981
     93          1           0        2.005438    1.713497   -3.122878
     94          1           0        4.501611    3.459568   -2.612256
     95          1           0        3.892162    2.969966   -4.181069
     96          1           0        4.624269    0.736521   -3.912930
     97          1           0        5.964471    1.714872   -3.344143
     98          1           0        1.427100    0.052544    1.260641
     99          1           0        2.687371    1.252663    1.444233
    100          1           0        0.907869    0.886635   -1.050712
    101          1           0        1.101678    2.367594   -0.034199
    102          1           0        5.687079    2.316386   -0.575421
    103          1           0        6.863119    1.108210   -0.914268
    104          1           0        6.573427    0.120865    1.053610
    105          1           0        6.088116    4.515312    2.541616
    106          1           0        4.504913    3.762569    2.812542
    107          1           0        5.941736    3.237309    3.764750
    108          1           0        6.194344   -1.652960    2.629489
    109          1           0        5.004321   -2.788678    3.248532
    110          1           0        5.839657   -3.130477    1.715228
 ---------------------------------------------------------------------
 Rotational constants (GHZ):           0.0874113           0.0323924           0.0310663
 Standard basis: STO-3G (5D, 7F)
 There are   326 symmetry adapted cartesian basis functions of A   symmetry.
 There are   326 symmetry adapted basis functions of A   symmetry.
   326 basis functions,   978 primitive gaussians,   326 cartesian basis functions
   197 alpha electrons      197 beta electrons
       nuclear repulsion energy      8107.8137300110 Hartrees.
 NAtoms=  110 NActive=  110 NUniq=  110 SFac= 1.00D+00 NAtFMM=   60 NAOKFM=T Big=T
 Integral buffers will be    131072 words long.
 Raffenetti 1 integral format.
 Two-electron integral symmetry is turned on.
 One-electron integrals computed using PRISM.
 NBasis=   326 RedAO= T EigKep=  1.73D-01  NBF=   326
 NBsUse=   326 1.00D-06 EigRej= -1.00D+00 NBFU=   326
 ExpMin= 1.69D-01 ExpMax= 1.31D+02 ExpMxC= 1.31D+02 IAcc=3 IRadAn=         5 AccDes= 0.00D+00
 Harris functional with IExCor=  205 and IRadAn=       5 diagonalized for initial guess.
 HarFok:  IExCor=  205 AccDes= 0.00D+00 IRadAn=         5 IDoV= 1 UseB2=F ITyADJ=14
 ICtDFT=  3500011 ScaDFX=  1.000000  1.000000  1.000000  1.000000
 FoFCou: FMM=F IPFlag=           0 FMFlag=      100000 FMFlg1=        2001
         NFxFlg=           0 DoJE=T BraDBF=F KetDBF=T FulRan=T
         wScrn=  0.000000 ICntrl=       500 IOpCl=  0 I1Cent=   200000004 NGrid=           0
         NMat0=    1 NMatS0=      1 NMatT0=    0 NMatD0=    1 NMtDS0=    0 NMtDT0=    0
 Petite list used in FoFCou.
 Requested convergence on RMS density matrix=1.00D-08 within 128 cycles.
 Requested convergence on MAX density matrix=1.00D-06.
 Requested convergence on             energy=1.00D-06.
 No special actions if energy rises.
 Integral accuracy reduced to 1.0D-05 until final iterations.
 Initial convergence to 1.0D-05 achieved.  Increase integral accuracy.
 SCF Done:  E(RHF) =  -2300.19521765     A.U. after   16 cycles
            NFock= 16  Conv=0.38D-08     -V/T= 2.0093
 Range of M.O.s used for correlation:     1   326
 NBasis=   326 NAE=   197 NBE=   197 NFC=     0 NFV=     0
 NROrb=    326 NOA=   197 NOB=   197 NVA=   129 NVB=   129
          Differentiating once with respect to magnetic field using GIAOs.
          Electric field/nuclear overlap derivatives assumed to be zero.
 FoFCou: FMM=F IPFlag=           0 FMFlag=      100000 FMFlg1=        2001
         NFxFlg=           0 DoJE=F BraDBF=F KetDBF=T FulRan=T
         wScrn=  0.000000 ICntrl=      6100 IOpCl=  0 I1Cent=           7 NGrid=         110
         NMat0=    1 NMatS0=      1 NMatT0=    0 NMatD0=    1 NMtDS0=    0 NMtDT0=    0
 Symmetry not used in FoFCou.
 FoFJK:  IHMeth= 1 ICntrl=    6127 DoSepK=F KAlg= 0 I1Cent=           0 FoldK=F
 IRaf=         1 NMat=       1 IRICut=       1 DoRegI=T DoRafI=F ISym2E= 0 IDoP0=0 IntGTp=1.
          There are     3 degrees of freedom in the 1st order CPHF.  IDoFFX=0 NUNeed=     3.
      3 vectors produced by pass  0 Test12= 8.47D-13 3.33D-08 XBig12= 1.71D+02 2.08D+00.
 AX will form     3 AO Fock derivatives at one time.
      3 vectors produced by pass  1 Test12= 8.47D-13 3.33D-08 XBig12= 6.06D-01 2.68D-01.
      3 vectors produced by pass  2 Test12= 8.47D-13 3.33D-08 XBig12= 1.57D-02 2.91D-02.
      3 vectors produced by pass  3 Test12= 8.47D-13 3.33D-08 XBig12= 3.13D-04 5.88D-03.
      3 vectors produced by pass  4 Test12= 8.47D-13 3.33D-08 XBig12= 1.12D-05 7.15D-04.
      3 vectors produced by pass  5 Test12= 8.47D-13 3.33D-08 XBig12= 2.28D-07 7.01D-05.
      3 vectors produced by pass  6 Test12= 8.47D-13 3.33D-08 XBig12= 5.02D-09 1.77D-05.
      3 vectors produced by pass  7 Test12= 8.47D-13 3.33D-08 XBig12= 2.42D-10 4.20D-06.
      3 vectors produced by pass  8 Test12= 8.47D-13 3.33D-08 XBig12= 6.27D-12 3.49D-07.
      2 vectors produced by pass  9 Test12= 8.47D-13 3.33D-08 XBig12= 7.33D-14 5.55D-08.
 InvSVY:  IOpt=1 It=  1 EMax= 1.78D-15
 Solved reduced A of dimension    29 with     3 vectors.
 Calculating GIAO nuclear magnetic shielding tensors.
 SCF GIAO Magnetic shielding tensor (ppm):
      1  C    Isotropic =   125.6000   Anisotropy =   154.0552
   XX=   170.4341   YX=    55.9185   ZX=   -37.5515
   XY=    53.5481   YY=   165.3326   ZY=   -15.6867
   XZ=   -34.8313   YZ=    -1.7495   ZZ=    41.0333
   Eigenvalues:    31.3449   117.1516   228.3035
      2  C    Isotropic =   118.7959   Anisotropy =   162.4650
   XX=   125.1229   YX=    94.7464   ZX=   -18.4274
   XY=    87.7887   YY=   140.7997   ZY=   -10.1210
   XZ=   -19.4543   YZ=    -5.6211   ZZ=    90.4652
   Eigenvalues:    39.8296    89.4523   227.1059
      3  C    Isotropic =   118.8064   Anisotropy =   152.0870
   XX=   147.2048   YX=    79.2814   ZX=    20.3940
   XY=    72.4669   YY=   138.3391   ZY=   -36.4980
   XZ=    17.9251   YZ=   -44.8729   ZZ=    70.8753
   Eigenvalues:    25.5453   110.6762   220.1978
      4  C    Isotropic =   134.4206   Anisotropy =   143.4873
   XX=   174.2779   YX=    53.6287   ZX=   -30.0888
   XY=    56.6402   YY=   169.5897   ZY=    -1.4937
   XZ=   -24.3502   YZ=    -6.2484   ZZ=    59.3943
   Eigenvalues:    52.5323   120.6508   230.0788
      5  C    Isotropic =   108.7573   Anisotropy =   130.1844
   XX=   123.9741   YX=    68.6203   ZX=   -26.4745
   XY=    75.3316   YY=   114.2142   ZY=   -10.2812
   XZ=   -27.5799   YZ=     5.6293   ZZ=    88.0835
   Eigenvalues:    40.6347    90.0902   195.5468
      6  C    Isotropic =   118.1342   Anisotropy =   142.8815
   XX=   156.6222   YX=    66.2104   ZX=    -1.8808
   XY=    67.6209   YY=   129.2046   ZY=   -21.6040
   XZ=     1.0084   YZ=   -32.7980   ZZ=    68.5758
   Eigenvalues:    49.4665    91.5474   213.3885
      7  N    Isotropic =   275.2309   Anisotropy =    86.5766
   XX=   305.8422   YX=   -31.6072   ZX=    -7.9783
   XY=   -44.7233   YY=   271.6318   ZY=    -2.3047
   XZ=   -21.1308   YZ=     9.6141   ZZ=   248.2185
   Eigenvalues:   241.5646   251.1793   332.9486
      8  C    Isotropic =   198.1408   Anisotropy =    11.0116
   XX=   195.7945   YX=     1.1600   ZX=     5.9190
   XY=     3.2370   YY=   194.9953   ZY=     1.4630
   XZ=     1.6512   YZ=    -7.0279   ZZ=   203.6325
   Eigenvalues:   191.4267   197.5137   205.4818
      9  C    Isotropic =   180.3446   Anisotropy =    41.9000
   XX=   173.0134   YX=   -21.1711   ZX=    -3.8646
   XY=    -5.1961   YY=   160.2788   ZY=    -3.8023
   XZ=    -4.0699   YZ=     4.7752   ZZ=   207.7416
   Eigenvalues:   151.9534   180.8025   208.2780
     10  C    Isotropic =   189.7107   Anisotropy =    31.8437
   XX=   189.2134   YX=    10.0664   ZX=    11.2071
   XY=    15.9593   YY=   183.1684   ZY=     6.4088
   XZ=     9.0414   YZ=     8.9753   ZZ=   196.7504
   Eigenvalues:   172.8275   185.3649   210.9399
     11  C    Isotropic =   213.2540   Anisotropy =    21.2127
   XX=   215.4719   YX=     9.9423   ZX=    -5.3108
   XY=    11.8810   YY=   215.4178   ZY=     2.8091
   XZ=    -4.2569   YZ=    -5.5575   ZZ=   208.8721
   Eigenvalues:   203.3115   209.0546   227.3957
     12  C    Isotropic =   214.7168   Anisotropy =    18.8261
   XX=   208.8755   YX=     7.2702   ZX=     3.5561
   XY=     8.1908   YY=   214.9645   ZY=     5.2206
   XZ=     2.5732   YZ=     7.4826   ZZ=   220.3104
   Eigenvalues:   203.5333   213.3496   227.2675
     13  C    Isotropic =   210.9835   Anisotropy =     8.6373
   XX=   210.4802   YX=    -1.8749   ZX=    -3.8811
   XY=     1.3747   YY=   209.0556   ZY=    -1.3573
   XZ=    -4.4124   YZ=    -3.1969   ZZ=   213.4146
   Eigenvalues:   206.5182   209.6905   216.7417
     14  N    Isotropic =   301.3047   Anisotropy =    58.3269
   XX=   311.0506   YX=    37.9003   ZX=     0.0604
   XY=    38.6949   YY=   267.6176   ZY=    22.7292
   XZ=     0.5077   YZ=    12.9782   ZZ=   325.2459
   Eigenvalues:   242.4540   321.2708   340.1893
     15  C    Isotropic =   202.7244   Anisotropy =    39.8599
   XX=   193.6246   YX=    -2.2864   ZX=    -8.1608
   XY=    -1.2932   YY=   186.9934   ZY=    -1.7552
   XZ=    -7.2693   YZ=    -2.5540   ZZ=   227.5551
   Eigenvalues:   186.0941   192.7814   229.2976
     16  C    Isotropic =   219.5525   Anisotropy =    10.6350
   XX=   225.5749   YX=     1.0003   ZX=    -2.8737
   XY=     3.0199   YY=   212.4259   ZY=     2.3492
   XZ=    -2.1800   YZ=     6.7222   ZZ=   220.6566
   Eigenvalues:   209.8890   222.1260   226.6424
     17  C    Isotropic =   214.0622   Anisotropy =    23.2490
   XX=   207.7166   YX=     3.4565   ZX=    -4.9118
   XY=     3.0526   YY=   205.4452   ZY=     2.1718
   XZ=    -1.7957   YZ=     0.2675   ZZ=   229.0247
   Eigenvalues:   202.7979   209.8271   229.5615
     18  C    Isotropic =   208.7068   Anisotropy =    29.2490
   XX=   210.8134   YX=    18.9928   ZX=     6.4395
   XY=    20.3831   YY=   201.2290   ZY=     3.5604
   XZ=    -1.6734   YZ=     7.1374   ZZ=   214.0779
   Eigenvalues:   185.4909   212.4233   228.2061
     19  C    Isotropic =   200.6047   Anisotropy =    43.2584
   XX=   215.9475   YX=    16.5479   ZX=   -12.4003
   XY=     8.3416   YY=   181.3103   ZY=    -3.0510
   XZ=   -18.1543   YZ=    -2.1438   ZZ=   204.5562
   Eigenvalues:   177.0805   195.2899   229.4436
     20  C    Isotropic =   211.6618   Anisotropy =    23.3771
   XX=   201.3270   YX=    -7.4825   ZX=    -5.3035
   XY=    -7.0375   YY=   218.3133   ZY=    -9.8714
   XZ=    -3.9801   YZ=   -10.2080   ZZ=   215.3452
   Eigenvalues:   195.1978   212.5412   227.2466
     21  C    Isotropic =   207.9004   Anisotropy =    15.6459
   XX=   202.5116   YX=     1.1768   ZX=     0.6238
   XY=    -3.6424   YY=   218.2342   ZY=    -1.2050
   XZ=     0.8108   YZ=     1.1116   ZZ=   202.9554
   Eigenvalues:   201.9243   203.4460   218.3310
     22  C    Isotropic =    98.7900   Anisotropy =    97.2031
   XX=   156.5362   YX=    30.0434   ZX=     0.8163
   XY=    10.3584   YY=   -19.0401   ZY=   -16.2750
   XZ=     0.4981   YZ=   -35.7032   ZZ=   158.8740
   Eigenvalues:   -24.9826   157.7606   163.5921
     23  O    Isotropic =  -143.3773   Anisotropy =   894.3624
   XX=   -58.8947   YX=   -21.7816   ZX=   522.7220
   XY=   -29.4730   YY=  -292.1318   ZY=    20.1863
   XZ=   520.6964   YZ=    13.4223   ZZ=   -79.1053
   Eigenvalues:  -593.7795  -289.2167   452.8643
     24  O    Isotropic =   284.9697   Anisotropy =   146.0921
   XX=   310.2071   YX=  -144.2135   ZX=    40.5480
   XY=   -46.3693   YY=   237.6598   ZY=    35.5251
   XZ=    48.7402   YZ=   142.3807   ZZ=   307.0421
   Eigenvalues:   119.8548   352.6898   382.3644
     25  C    Isotropic =   197.5432   Anisotropy =    56.5460
   XX=   182.5544   YX=    11.9011   ZX=    -2.2899
   XY=    12.2724   YY=   229.6252   ZY=   -12.0814
   XZ=    -2.0441   YZ=   -11.8633   ZZ=   180.4499
   Eigenvalues:   177.5304   179.8586   235.2405
     26  C    Isotropic =   210.9540   Anisotropy =    41.7633
   XX=   210.0451   YX=     1.8573   ZX=    20.5081
   XY=     0.0628   YY=   198.4449   ZY=    -0.7395
   XZ=    20.2081   YZ=    -1.8331   ZZ=   224.3718
   Eigenvalues:   194.9573   199.1084   238.7962
     27  C    Isotropic =   206.2173   Anisotropy =    20.4759
   XX=   211.6337   YX=    -4.4989   ZX=     9.3426
   XY=    -3.8266   YY=   207.2515   ZY=     1.3343
   XZ=    14.4829   YZ=    -0.2681   ZZ=   199.7668
   Eigenvalues:   191.9234   206.8607   219.8679
     28  C    Isotropic =   118.2135   Anisotropy =   161.1055
   XX=   108.6169   YX=   -61.5868   ZX=   -70.1905
   XY=   -52.8222   YY=   108.0933   ZY=    33.2138
   XZ=   -67.5267   YZ=    29.4299   ZZ=   137.9303
   Eigenvalues:    39.3145    89.7089   225.6171
     29  C    Isotropic =   127.7412   Anisotropy =   152.6389
   XX=   155.2533   YX=    -9.5654   ZX=   -73.0361
   XY=   -10.6282   YY=   109.9372   ZY=    66.7806
   XZ=   -71.6491   YZ=    52.7340   ZZ=   118.0331
   Eigenvalues:    35.3381   118.3851   229.5004
     30  C    Isotropic =   118.8191   Anisotropy =   152.1585
   XX=   144.9261   YX=   -61.4917   ZX=   -34.3871
   XY=   -60.0990   YY=    67.0334   ZY=    45.0676
   XZ=   -36.7072   YZ=    54.3254   ZZ=   144.4979
   Eigenvalues:    26.5859   109.6133   220.2581
     31  C    Isotropic =   134.0449   Anisotropy =   143.5895
   XX=   153.7837   YX=   -11.8973   ZX=   -69.0029
   XY=   -18.7458   YY=   122.2920   ZY=    54.3804
   XZ=   -63.9549   YZ=    56.7268   ZZ=   126.0589
   Eigenvalues:    52.0715   120.2919   229.7712
     32  C    Isotropic =   108.5915   Anisotropy =   130.2728
   XX=   102.4867   YX=   -36.4609   ZX=   -64.2355
   XY=   -37.2583   YY=    99.4740   ZY=    27.0421
   XZ=   -67.6353   YZ=    10.5996   ZZ=   123.8137
   Eigenvalues:    41.0968    89.2376   195.4400
     33  C    Isotropic =   117.7024   Anisotropy =   142.9309
   XX=   146.1633   YX=   -43.4299   ZX=   -47.0803
   XY=   -45.3219   YY=    76.4233   ZY=    36.6740
   XZ=   -45.6251   YZ=    48.5840   ZZ=   130.5207
   Eigenvalues:    48.5083    91.6092   212.9897
     34  N    Isotropic =   273.3769   Anisotropy =    85.5403
   XX=   303.3273   YX=    31.4507   ZX=     0.1076
   XY=    50.6971   YY=   268.0736   ZY=     8.0396
   XZ=    -3.6871   YZ=     0.1004   ZZ=   248.7296
   Eigenvalues:   239.0234   250.7035   330.4037
     35  C    Isotropic =   200.8962   Anisotropy =    13.5033
   XX=   197.1343   YX=    -4.0139   ZX=     7.6645
   XY=    -4.5848   YY=   198.1002   ZY=    -4.0927
   XZ=     2.9103   YZ=     4.4117   ZZ=   207.4541
   Eigenvalues:   192.1319   200.6583   209.8984
     36  C    Isotropic =   179.3589   Anisotropy =    39.6275
   XX=   172.9405   YX=    12.9838   ZX=    14.7553
   XY=     1.9018   YY=   177.0273   ZY=   -17.1334
   XZ=     3.8736   YZ=   -27.4204   ZZ=   188.1088
   Eigenvalues:   152.8619   179.4375   205.7772
     37  C    Isotropic =   184.0325   Anisotropy =    42.6386
   XX=   178.1129   YX=   -19.2829   ZX=    -8.2822
   XY=   -23.3106   YY=   198.5172   ZY=    -0.3422
   XZ=   -13.8536   YZ=    -3.4681   ZZ=   175.4673
   Eigenvalues:   158.2971   181.3421   212.4582
     38  C    Isotropic =   211.0999   Anisotropy =    23.8405
   XX=   208.6256   YX=    -2.1275   ZX=   -10.5341
   XY=    -7.0933   YY=   210.0849   ZY=     2.5651
   XZ=   -12.5269   YZ=     9.6880   ZZ=   214.5893
   Eigenvalues:   199.6962   206.6099   226.9936
     39  C    Isotropic =   212.9042   Anisotropy =    19.7656
   XX=   205.1043   YX=    -7.3516   ZX=     1.4952
   XY=    -5.2699   YY=   224.1447   ZY=     1.2892
   XZ=    -0.9681   YZ=    -2.7185   ZZ=   209.4635
   Eigenvalues:   203.2022   209.4291   226.0812
     40  C    Isotropic =   211.6243   Anisotropy =    11.6219
   XX=   209.0192   YX=     3.4449   ZX=    -3.6706
   XY=     2.7791   YY=   210.5240   ZY=    -3.8978
   XZ=    -3.5956   YZ=    -3.2775   ZZ=   215.3295
   Eigenvalues:   206.4871   209.0135   219.3722
     41  N    Isotropic =   235.4640   Anisotropy =    24.5290
   XX=   245.2668   YX=     8.3239   ZX=     7.1374
   XY=    -3.9832   YY=   244.3550   ZY=    -3.1188
   XZ=    14.3532   YZ=    17.6723   ZZ=   216.7703
   Eigenvalues:   211.9624   242.6129   251.8167
     42  C    Isotropic =   193.9587   Anisotropy =    49.8656
   XX=   182.2132   YX=    -2.3733   ZX=     2.4571
   XY=    -3.2077   YY=   182.6039   ZY=   -22.6734
   XZ=     6.4538   YZ=   -18.2960   ZZ=   217.0591
   Eigenvalues:   173.0171   181.6566   227.2025
     43  C    Isotropic =   219.3874   Anisotropy =    11.2734
   XX=   222.8741   YX=    -3.3904   ZX=    -5.7946
   XY=    -4.0682   YY=   219.8167   ZY=    -5.6903
   XZ=    -7.6691   YZ=    -8.4050   ZZ=   215.4714
   Eigenvalues:   206.6647   224.5945   226.9030
     44  C    Isotropic =   214.8854   Anisotropy =    22.4073
   XX=   205.8997   YX=    -2.6416   ZX=    -3.7442
   XY=    -3.8010   YY=   216.7078   ZY=   -10.6713
   XZ=    -0.3381   YZ=    -9.5143   ZZ=   222.0486
   Eigenvalues:   203.3255   211.5071   229.8236
     45  C    Isotropic =   207.2669   Anisotropy =    35.3545
   XX=   208.4934   YX=   -21.1253   ZX=    -9.7500
   XY=   -18.5378   YY=   211.8732   ZY=    -5.0264
   XZ=   -16.7026   YZ=    -7.6150   ZZ=   201.4341
   Eigenvalues:   180.6529   210.3111   230.8366
     46  C    Isotropic =   191.3141   Anisotropy =    55.8248
   XX=   210.3188   YX=    -1.6258   ZX=   -24.5343
   XY=     8.9565   YY=   180.4767   ZY=   -12.7907
   XZ=   -26.7803   YZ=   -18.6941   ZZ=   183.1468
   Eigenvalues:   160.3196   185.0921   228.5306
     47  C    Isotropic =   211.7883   Anisotropy =    25.1851
   XX=   205.3727   YX=     8.2971   ZX=     5.8432
   XY=     7.3180   YY=   203.1196   ZY=     1.4753
   XZ=     4.6857   YZ=     1.8161   ZZ=   226.8727
   Eigenvalues:   196.1909   210.5957   228.5784
     48  C    Isotropic =   207.3137   Anisotropy =    16.4903
   XX=   201.8160   YX=     1.6389   ZX=     0.8530
   XY=     2.9464   YY=   213.5778   ZY=     8.5975
   XZ=     3.3145   YZ=     5.0652   ZZ=   206.5474
   Eigenvalues:   201.0127   202.6213   218.3073
     49  C    Isotropic =    98.2969   Anisotropy =    96.3282
   XX=   151.4838   YX=   -37.2840   ZX=   -18.2161
   XY=   -23.8951   YY=     9.2261   ZY=   -76.0693
   XZ=    -7.8297   YZ=   -55.7325   ZZ=   134.1809
   Eigenvalues:   -25.3563   157.7313   162.5157
     50  O    Isotropic =  -131.9916   Anisotropy =   878.5741
   XX=    92.4001   YX=  -276.7205   ZX=   402.6434
   XY=  -265.7013   YY=  -202.5380   ZY=   -70.9325
   XZ=   399.4250   YZ=   -57.2285   ZZ=  -285.8369
   Eigenvalues:  -568.6933  -281.0060   453.7245
     51  O    Isotropic =   285.9837   Anisotropy =   142.7497
   XX=   339.5303   YX=    77.4387   ZX=    83.2654
   XY=    10.3303   YY=   333.8685   ZY=   -18.6462
   XZ=    53.4766   YZ=  -143.9824   ZZ=   184.5523
   Eigenvalues:   119.4710   357.3299   381.1501
     52  C    Isotropic =   197.5284   Anisotropy =    56.5061
   XX=   181.5365   YX=    -5.6523   ZX=    -5.4712
   XY=    -6.5607   YY=   206.9464   ZY=    28.5140
   XZ=    -4.8541   YZ=    28.3894   ZZ=   204.1023
   Eigenvalues:   176.9735   180.4125   235.1992
     53  C    Isotropic =   211.1362   Anisotropy =    42.1683
   XX=   216.8358   YX=   -15.6277   ZX=    15.9343
   XY=   -14.5105   YY=   205.9994   ZY=    -9.7865
   XZ=    16.1204   YZ=    -8.5581   ZZ=   210.5733
   Eigenvalues:   194.8533   199.3068   239.2484
     54  O    Isotropic =    74.6412   Anisotropy =   406.6995
   XX=    22.2805   YX=   136.3860   ZX=   100.2625
   XY=   112.0985   YY=   135.5012   ZY=   157.6611
   XZ=    89.9475   YZ=   173.8145   ZZ=    66.1419
   Eigenvalues:   -69.5395   -52.3111   345.7741
     55  H    Isotropic =    26.8183   Anisotropy =    14.5154
   XX=    30.8722   YX=    -6.0422   ZX=    -1.3456
   XY=    -7.4976   YY=    26.8479   ZY=     1.1808
   XZ=    -3.4625   YZ=     1.7611   ZZ=    22.7349
   Eigenvalues:    21.6676    22.2921    36.4952
     56  H    Isotropic =    25.7510   Anisotropy =     5.7365
   XX=    24.9507   YX=    -2.3687   ZX=     2.6610
   XY=    -2.5307   YY=    24.4335   ZY=     0.6953
   XZ=     2.6541   YZ=     0.4593   ZZ=    27.8686
   Eigenvalues:    21.4184    26.2592    29.5753
     57  H    Isotropic =    26.5648   Anisotropy =     7.0476
   XX=    26.2137   YX=    -4.3325   ZX=    -0.4372
   XY=    -4.7348   YY=    24.7553   ZY=     2.3254
   XZ=    -0.2492   YZ=     2.0095   ZZ=    28.7256
   Eigenvalues:    20.6314    27.7999    31.2633
     58  H    Isotropic =    32.3850   Anisotropy =     7.5857
   XX=    31.0994   YX=    -3.9496   ZX=    -1.2511
   XY=    -3.6103   YY=    34.6199   ZY=    -3.3530
   XZ=    -0.6288   YZ=    -1.4234   ZZ=    31.4356
   Eigenvalues:    27.5179    32.1948    37.4421
     59  H    Isotropic =    33.0257   Anisotropy =     8.3857
   XX=    32.0752   YX=    -1.2786   ZX=    -3.2687
   XY=     2.6211   YY=    37.1552   ZY=     3.2331
   XZ=    -2.8798   YZ=     3.7842   ZZ=    29.8467
   Eigenvalues:    26.6522    33.8086    38.6161
     60  H    Isotropic =    32.2356   Anisotropy =    13.7408
   XX=    37.2531   YX=     2.5594   ZX=     5.0786
   XY=     4.2223   YY=    25.3720   ZY=     0.3423
   XZ=     4.6132   YZ=     1.0661   ZZ=    34.0818
   Eigenvalues:    24.4325    30.8783    41.3961
     61  H    Isotropic =    32.3018   Anisotropy =    15.9136
   XX=    42.2061   YX=     2.7788   ZX=    -1.5270
   XY=     3.3755   YY=    26.0047   ZY=     0.2216
   XZ=    -1.4778   YZ=     0.5330   ZZ=    28.6946
   Eigenvalues:    25.3137    28.6809    42.9108
     62  H    Isotropic =    32.7496   Anisotropy =    13.1609
   XX=    28.2287   YX=     2.1490   ZX=    -1.6042
   XY=     3.5367   YY=    39.4322   ZY=    -4.1314
   XZ=    -1.1792   YZ=    -3.2750   ZZ=    30.5880
   Eigenvalues:    27.4245    29.3009    41.5236
     63  H    Isotropic =    32.6971   Anisotropy =    11.3411
   XX=    31.5970   YX=    -4.3251   ZX=     1.8439
   XY=    -4.5467   YY=    31.8071   ZY=    -4.5001
   XZ=     1.8631   YZ=    -4.9094   ZZ=    34.6871
   Eigenvalues:    26.6025    31.2308    40.2578
     64  H    Isotropic =    31.9358   Anisotropy =    13.8605
   XX=    32.2123   YX=     3.8684   ZX=     3.2607
   XY=     4.1707   YY=    28.0353   ZY=     5.2480
   XZ=     3.1230   YZ=     6.1434   ZZ=    35.5596
   Eigenvalues:    24.3224    30.3088    41.1761
     65  H    Isotropic =    32.5056   Anisotropy =    17.7542
   XX=    28.7866   YX=     0.5672   ZX=    -3.2791
   XY=     0.7952   YY=    25.2154   ZY=    -1.4400
   XZ=    -3.5455   YZ=    -0.7065   ZZ=    43.5149
   Eigenvalues:    25.0773    28.0979    44.3418
     66  H    Isotropic =    32.0179   Anisotropy =    12.4629
   XX=    28.6645   YX=    -4.1541   ZX=    -1.1069
   XY=    -3.8413   YY=    36.8324   ZY=     3.8013
   XZ=    -1.6426   YZ=     4.2903   ZZ=    30.5568
   Eigenvalues:    27.0004    28.7268    40.3265
     67  H    Isotropic =    32.6677   Anisotropy =    12.7639
   XX=    27.8988   YX=     2.9542   ZX=    -1.7534
   XY=     3.5518   YY=    36.3004   ZY=    -5.1092
   XZ=    -1.8551   YZ=    -4.7918   ZZ=    33.8041
   Eigenvalues:    26.7840    30.0422    41.1770
     68  H    Isotropic =    32.2916   Anisotropy =    15.4703
   XX=    39.9462   YX=    -1.5958   ZX=    -5.0160
   XY=    -1.3897   YY=    25.0654   ZY=     0.7464
   XZ=    -5.2484   YZ=     0.9629   ZZ=    31.8632
   Eigenvalues:    24.8945    29.3753    42.6051
     69  H    Isotropic =    33.2859   Anisotropy =    15.3932
   XX=    40.7487   YX=     4.2345   ZX=    -4.2182
   XY=     2.3733   YY=    28.6059   ZY=     1.1502
   XZ=    -6.3081   YZ=    -0.5211   ZZ=    30.5031
   Eigenvalues:    26.6050    29.7047    43.5480
     70  H    Isotropic =    32.5877   Anisotropy =    10.9026
   XX=    32.5420   YX=    -2.0847   ZX=     3.4993
   XY=    -1.7993   YY=    37.8272   ZY=    -2.9236
   XZ=     2.1706   YZ=    -3.8643   ZZ=    27.3937
   Eigenvalues:    25.6487    32.2582    39.8561
     71  H    Isotropic =    32.8642   Anisotropy =    15.1661
   XX=    40.8472   YX=    -5.3068   ZX=     1.4349
   XY=    -5.6429   YY=    28.8727   ZY=     0.7134
   XZ=    -0.4944   YZ=     0.7809   ZZ=    28.8727
   Eigenvalues:    26.4382    29.1795    42.9750
     72  H    Isotropic =    32.3276   Anisotropy =    13.5856
   XX=    35.4069   YX=     6.9285   ZX=     1.7363
   XY=     5.6156   YY=    32.4748   ZY=     4.2660
   XZ=     0.9098   YZ=     3.5270   ZZ=    29.1011
   Eigenvalues:    25.6299    29.9683    41.3847
     73  H    Isotropic =    31.0022   Anisotropy =     8.1414
   XX=    25.9075   YX=    -1.6391   ZX=     2.7782
   XY=    -0.5775   YY=    35.8280   ZY=     1.8552
   XZ=     0.6833   YZ=     1.5848   ZZ=    31.2713
   Eigenvalues:    25.1665    31.4103    36.4299
     74  H    Isotropic =    31.5779   Anisotropy =    15.1291
   XX=    38.0651   YX=    -6.5084   ZX=    -3.3475
   XY=    -5.9278   YY=    28.2028   ZY=    -0.8973
   XZ=    -3.5070   YZ=    -0.5537   ZZ=    28.4659
   Eigenvalues:    24.0408    29.0290    41.6640
     75  H    Isotropic =    31.4666   Anisotropy =    12.7375
   XX=    36.1746   YX=    -2.9507   ZX=     4.8623
   XY=    -3.0623   YY=    28.3145   ZY=    -1.1918
   XZ=     5.9001   YZ=     0.3288   ZZ=    29.9107
   Eigenvalues:    26.0537    28.3878    39.9582
     76  H    Isotropic =    30.6124   Anisotropy =     7.8032
   XX=    33.8897   YX=     2.8896   ZX=     1.8937
   XY=     1.9355   YY=    32.3827   ZY=    -0.0312
   XZ=     1.1964   YZ=    -0.0077   ZZ=    25.5648
   Eigenvalues:    25.2567    30.7659    35.8145
     77  H    Isotropic =    30.5619   Anisotropy =    12.7066
   XX=    27.9830   YX=    -3.9495   ZX=    -2.0077
   XY=    -4.6077   YY=    35.9584   ZY=     3.4338
   XZ=    -2.1089   YZ=     2.8366   ZZ=    27.7443
   Eigenvalues:    25.6866    26.9662    39.0330
     78  H    Isotropic =    30.5690   Anisotropy =    10.8399
   XX=    26.4260   YX=    -1.7527   ZX=     1.4685
   XY=    -1.8925   YY=    31.8461   ZY=    -4.1983
   XZ=     2.0164   YZ=    -4.8679   ZZ=    33.4349
   Eigenvalues:    25.8407    28.0708    37.7957
     79  H    Isotropic =    31.9224   Anisotropy =    12.3045
   XX=    31.7482   YX=     3.9850   ZX=     4.5265
   XY=     5.1556   YY=    31.3384   ZY=     3.6960
   XZ=     3.6014   YZ=     3.6081   ZZ=    32.6804
   Eigenvalues:    26.9569    28.6848    40.1254
     80  H    Isotropic =    30.8453   Anisotropy =    14.2562
   XX=    27.6005   YX=    -1.0136   ZX=    -1.4214
   XY=    -1.0946   YY=    25.0948   ZY=    -2.2834
   XZ=    -2.1799   YZ=    -1.9435   ZZ=    39.8407
   Eigenvalues:    24.2683    27.9182    40.3495
     81  H    Isotropic =    31.6703   Anisotropy =    11.6681
   XX=    32.3306   YX=    -6.3091   ZX=     4.1826
   XY=    -6.1452   YY=    29.7531   ZY=    -0.9753
   XZ=     3.8948   YZ=    -0.4375   ZZ=    32.9271
   Eigenvalues:    24.1682    31.3936    39.4490
     82  H    Isotropic =    30.0957   Anisotropy =    11.2162
   XX=    28.2610   YX=     3.5285   ZX=    -0.0512
   XY=     0.0568   YY=    34.4478   ZY=    -5.6464
   XZ=     0.5618   YZ=    -4.9911   ZZ=    27.5783
   Eigenvalues:    24.3680    28.3459    37.5732
     83  H    Isotropic =    30.2704   Anisotropy =    11.2140
   XX=    27.1742   YX=    -3.6009   ZX=    -1.0975
   XY=    -1.5588   YY=    30.3152   ZY=     5.7062
   XZ=     1.7592   YZ=     5.4144   ZZ=    33.3216
   Eigenvalues:    24.2493    28.8154    37.7464
     84  H    Isotropic =    27.4049   Anisotropy =    16.1265
   XX=    33.1502   YX=     5.5209   ZX=     2.5003
   XY=     8.5420   YY=    27.3662   ZY=     1.0839
   XZ=     1.7503   YZ=     0.4812   ZZ=    21.6982
   Eigenvalues:    21.2107    22.8481    38.1559
     85  H    Isotropic =    25.7120   Anisotropy =     6.1352
   XX=    25.9705   YX=     0.1915   ZX=     3.8523
   XY=     0.5404   YY=    26.0640   ZY=    -2.1641
   XZ=     3.8231   YZ=    -2.1315   ZZ=    25.1015
   Eigenvalues:    20.9818    26.3520    29.8021
     86  H    Isotropic =    26.4922   Anisotropy =     7.2247
   XX=    26.4524   YX=     3.3275   ZX=     2.2046
   XY=     3.4770   YY=    28.5262   ZY=    -3.3320
   XZ=     2.6219   YZ=    -3.0419   ZZ=    24.4981
   Eigenvalues:    20.3138    27.8541    31.3087
     87  H    Isotropic =    32.1218   Anisotropy =     7.0035
   XX=    32.7315   YX=     3.4430   ZX=     2.3829
   XY=     3.4968   YY=    31.0419   ZY=     1.4018
   XZ=     2.8276   YZ=    -0.5523   ZZ=    32.5921
   Eigenvalues:    27.9064    31.6683    36.7908
     88  H    Isotropic =    33.1643   Anisotropy =     8.4874
   XX=    30.9597   YX=     2.6718   ZX=    -2.1683
   XY=    -0.5983   YY=    38.6189   ZY=     1.6394
   XZ=    -4.3685   YZ=     0.6439   ZZ=    29.9141
   Eigenvalues:    26.9238    33.7464    38.8225
     89  H    Isotropic =    32.1561   Anisotropy =    13.6647
   XX=    38.4315   YX=    -5.2760   ZX=     1.2095
   XY=    -6.2508   YY=    28.7258   ZY=    -1.8460
   XZ=    -0.3933   YZ=    -2.7454   ZZ=    29.3111
   Eigenvalues:    25.1450    30.0574    41.2659
     90  H    Isotropic =    32.2771   Anisotropy =    15.9772
   XX=    37.8444   YX=    -2.9303   ZX=    -6.9771
   XY=    -3.6111   YY=    27.7745   ZY=     0.2886
   XZ=    -7.2890   YZ=    -0.0224   ZZ=    31.2125
   Eigenvalues:    25.3063    28.5965    42.9285
     91  H    Isotropic =    33.0243   Anisotropy =    11.6861
   XX=    29.3007   YX=     2.3012   ZX=     1.2924
   XY=     0.9466   YY=    33.2620   ZY=     6.2108
   XZ=     0.9667   YZ=     4.5553   ZZ=    36.5100
   Eigenvalues:    28.4929    29.7648    40.8150
     92  H    Isotropic =    31.0220   Anisotropy =    13.2348
   XX=    31.0622   YX=    -5.9284   ZX=    -0.2782
   XY=    -5.5353   YY=    35.0053   ZY=    -3.1778
   XZ=    -0.3068   YZ=    -4.7168   ZZ=    26.9985
   Eigenvalues:    24.1279    29.0929    39.8452
     93  H    Isotropic =    32.2761   Anisotropy =    10.5968
   XX=    34.3719   YX=     2.9790   ZX=     4.5710
   XY=     2.8896   YY=    28.2095   ZY=    -1.4520
   XZ=     5.1470   YZ=    -0.7018   ZZ=    34.2467
   Eigenvalues:    25.8531    31.6345    39.3406
     94  H    Isotropic =    31.1590   Anisotropy =    13.0847
   XX=    29.0398   YX=     5.1161   ZX=     0.8352
   XY=     5.1600   YY=    37.4312   ZY=     0.3862
   XZ=     0.3552   YZ=    -0.0430   ZZ=    27.0059
   Eigenvalues:    26.2940    27.3008    39.8821
     95  H    Isotropic =    32.3865   Anisotropy =    17.4529
   XX=    27.8128   YX=    -0.9018   ZX=    -0.0872
   XY=    -0.7310   YY=    29.8071   ZY=    -7.6745
   XZ=    -0.7091   YZ=    -8.2890   ZZ=    39.5397
   Eigenvalues:    25.0297    28.1080    44.0218
     96  H    Isotropic =    32.7640   Anisotropy =    12.3433
   XX=    26.9786   YX=    -0.2964   ZX=     0.4707
   XY=    -0.7170   YY=    31.3460   ZY=     3.4390
   XZ=     0.1729   YZ=     2.8462   ZZ=    39.9673
   Eigenvalues:    26.8788    30.4202    40.9928
     97  H    Isotropic =    32.1697   Anisotropy =    15.5688
   XX=    37.7635   YX=     2.7929   ZX=    -5.6910
   XY=     2.7332   YY=    27.7389   ZY=    -4.1349
   XZ=    -5.9828   YZ=    -4.4146   ZZ=    31.0066
   Eigenvalues:    24.6737    29.2864    42.5488
     98  H    Isotropic =    33.1075   Anisotropy =    13.2110
   XX=    38.3914   YX=    -0.3000   ZX=    -6.0628
   XY=     1.9414   YY=    30.6325   ZY=    -2.3989
   XZ=    -6.3432   YZ=    -0.2668   ZZ=    30.2987
   Eigenvalues:    26.7755    30.6322    41.9149
     99  H    Isotropic =    31.5082   Anisotropy =    10.8057
   XX=    31.7136   YX=     0.6893   ZX=     3.0971
   XY=     0.5861   YY=    29.1649   ZY=     5.2527
   XZ=     2.7296   YZ=     6.3098   ZZ=    33.6460
   Eigenvalues:    24.9998    30.8127    38.7119
    100  H    Isotropic =    32.3410   Anisotropy =    16.4182
   XX=    41.7366   YX=     3.8236   ZX=     2.8313
   XY=     4.9167   YY=    28.7634   ZY=    -0.2753
   XZ=     1.3573   YZ=    -0.4616   ZZ=    26.5230
   Eigenvalues:    25.7588    27.9778    43.2864
    101  H    Isotropic =    31.3492   Anisotropy =    13.3047
   XX=    35.5045   YX=    -5.7661   ZX=    -4.0025
   XY=    -4.0032   YY=    32.6610   ZY=     1.1237
   XZ=    -3.2443   YZ=     2.1092   ZZ=    25.8819
   Eigenvalues:    24.6701    29.1585    40.2189
    102  H    Isotropic =    29.9267   Anisotropy =    10.7727
   XX=    26.0686   YX=     2.9856   ZX=     3.1944
   XY=     3.6380   YY=    35.7843   ZY=     0.9240
   XZ=     1.7418   YZ=     0.9739   ZZ=    27.9273
   Eigenvalues:    23.9123    28.7594    37.1085
    103  H    Isotropic =    31.8292   Anisotropy =    14.9552
   XX=    40.7930   YX=     3.4052   ZX=    -1.8114
   XY=     2.8055   YY=    25.9521   ZY=    -0.5083
   XZ=    -2.4245   YZ=    -1.1024   ZZ=    28.7426
   Eigenvalues:    25.2844    28.4038    41.7994
    104  H    Isotropic =    31.4400   Anisotropy =    13.0670
   XX=    37.5674   YX=    -1.3371   ZX=     4.7719
   XY=    -1.2603   YY=    28.5726   ZY=    -0.5860
   XZ=     5.6309   YZ=    -2.2843   ZZ=    28.1799
   Eigenvalues:    25.6409    28.5277    40.1513
    105  H    Isotropic =    30.6716   Anisotropy =    12.6278
   XX=    28.0125   YX=     4.5469   ZX=     0.3952
   XY=     5.2289   YY=    36.7148   ZY=     1.0937
   XZ=     0.6334   YZ=     1.6613   ZZ=    27.2875
   Eigenvalues:    25.8128    27.1119    39.0901
    106  H    Isotropic =    30.6258   Anisotropy =     7.1499
   XX=    33.7666   YX=    -2.9158   ZX=    -0.1404
   XY=    -1.5701   YY=    30.2506   ZY=     3.7328
   XZ=    -0.2801   YZ=     3.5270   ZZ=    27.8603
   Eigenvalues:    25.0743    31.4108    35.3924
    107  H    Isotropic =    30.6329   Anisotropy =    11.4045
   XX=    27.3291   YX=     0.9783   ZX=     3.6774
   XY=     0.9099   YY=    28.1499   ZY=     1.4076
   XZ=     4.2529   YZ=     1.7787   ZZ=    36.4196
   Eigenvalues:    25.7920    27.8707    38.2359
    108  H    Isotropic =    31.5190   Anisotropy =    11.9296
   XX=    34.2786   YX=     2.5038   ZX=     7.0953
   XY=     2.5581   YY=    30.1797   ZY=    -1.3397
   XZ=     6.5726   YZ=    -1.8176   ZZ=    30.0987
   Eigenvalues:    23.8175    31.2674    39.4721
    109  H    Isotropic =    30.7969   Anisotropy =    14.5509
   XX=    27.3975   YX=     0.5272   ZX=     1.5319
   XY=     0.9890   YY=    28.6485   ZY=    -6.8688
   XZ=     0.9017   YZ=    -7.0839   ZZ=    36.3446
   Eigenvalues:    24.0435    27.8496    40.4975
    110  H    Isotropic =    31.9654   Anisotropy =    12.2167
   XX=    32.2629   YX=    -6.2563   ZX=     0.8369
   XY=    -6.6746   YY=    34.7528   ZY=    -0.5249
   XZ=    -0.7154   YZ=    -0.5327   ZZ=    28.8805
   Eigenvalues:    26.8813    28.9051    40.1099
 End of Minotr F.D. properties file   721 does not exist.
 End of Minotr F.D. properties file   722 does not exist.
 End of Minotr F.D. properties file   788 does not exist.
 Hyperfine terms turned off by default for NAtoms > 100.

 **********************************************************************

            Population analysis using the SCF Density.

 **********************************************************************

 Orbital symmetries:
       Occupied  (A) (A) (A) (A) (A) (A) (A) (A) (A) (A) (A) (A)
                 (A) (A) (A) (A) (A) (A) (A) (A) (A) (A) (A) (A)
                 (A) (A) (A) (A) (A) (A) (A) (A) (A) (A) (A) (A)
                 (A) (A) (A) (A) (A) (A) (A) (A) (A) (A) (A) (A)
                 (A) (A) (A) (A) (A) (A) (A) (A) (A) (A) (A) (A)
                 (A) (A) (A) (A) (A) (A) (A) (A) (A) (A) (A) (A)
                 (A) (A) (A) (A) (A) (A) (A) (A) (A) (A) (A) (A)
                 (A) (A) (A) (A) (A) (A) (A) (A) (A) (A) (A) (A)
                 (A) (A) (A) (A) (A) (A) (A) (A) (A) (A) (A) (A)
                 (A) (A) (A) (A) (A) (A) (A) (A) (A) (A) (A) (A)
                 (A) (A) (A) (A) (A) (A) (A) (A) (A) (A) (A) (A)
                 (A) (A) (A) (A) (A) (A) (A) (A) (A) (A) (A) (A)
                 (A) (A) (A) (A) (A) (A) (A) (A) (A) (A) (A) (A)
                 (A) (A) (A) (A) (A) (A) (A) (A) (A) (A) (A) (A)
                 (A) (A) (A) (A) (A) (A) (A) (A) (A) (A) (A) (A)
                 (A) (A) (A) (A) (A) (A) (A) (A) (A) (A) (A) (A)
                 (A) (A) (A) (A) (A)
       Virtual   (A) (A) (A) (A) (A) (A) (A) (A) (A) (A) (A) (A)
                 (A) (A) (A) (A) (A) (A) (A) (A) (A) (A) (A) (A)
                 (A) (A) (A) (A) (A) (A) (A) (A) (A) (A) (A) (A)
                 (A) (A) (A) (A) (A) (A) (A) (A) (A) (A) (A) (A)
                 (A) (A) (A) (A) (A) (A) (A) (A) (A) (A) (A) (A)
                 (A) (A) (A) (A) (A) (A) (A) (A) (A) (A) (A) (A)
                 (A) (A) (A) (A) (A) (A) (A) (A) (A) (A) (A) (A)
                 (A) (A) (A) (A) (A) (A) (A) (A) (A) (A) (A) (A)
                 (A) (A) (A) (A) (A) (A) (A) (A) (A) (A) (A) (A)
                 (A) (A) (A) (A) (A) (A) (A) (A) (A) (A) (A) (A)
                 (A) (A) (A) (A) (A) (A) (A) (A) (A)
 The electronic state is 1-A.
 Alpha  occ. eigenvalues --  -20.29851 -20.28475 -20.24388 -20.22472 -19.92017
 Alpha  occ. eigenvalues --  -15.48039 -15.33412 -15.33366 -15.30104 -11.15910
 Alpha  occ. eigenvalues --  -11.14717 -11.10217 -11.09482 -11.09267 -11.09141
 Alpha  occ. eigenvalues --  -11.08999 -11.08705 -11.08615 -11.08207 -11.07985
 Alpha  occ. eigenvalues --  -11.06877 -11.06780 -11.06609 -11.06344 -11.06198
 Alpha  occ. eigenvalues --  -11.06158 -11.05787 -11.05782 -11.05599 -11.05523
 Alpha  occ. eigenvalues --  -11.05203 -11.05053 -11.04664 -11.04553 -11.04541
 Alpha  occ. eigenvalues --  -11.04094 -11.04006 -11.03870 -11.03761 -11.03754
 Alpha  occ. eigenvalues --  -11.03640 -11.03609 -11.03569 -11.03094 -11.02216
 Alpha  occ. eigenvalues --  -11.02069 -11.02049 -11.01957 -11.01885 -11.01790
 Alpha  occ. eigenvalues --  -11.01785 -11.01596 -11.01412 -11.01289  -1.37307
 Alpha  occ. eigenvalues --   -1.35713  -1.29419  -1.27030  -1.25461  -1.21549
 Alpha  occ. eigenvalues --   -1.20790  -1.19320  -1.10440  -1.09398  -1.08812
 Alpha  occ. eigenvalues --   -1.07520  -1.05703  -1.04726  -1.02685  -1.00568
 Alpha  occ. eigenvalues --   -0.98993  -0.98664  -0.98151  -0.97397  -0.96529
 Alpha  occ. eigenvalues --   -0.96444  -0.95085  -0.94222  -0.94095  -0.92405
 Alpha  occ. eigenvalues --   -0.91746  -0.90533  -0.89582  -0.89294  -0.87849
 Alpha  occ. eigenvalues --   -0.86395  -0.84814  -0.82657  -0.81474  -0.81129
 Alpha  occ. eigenvalues --   -0.80335  -0.79467  -0.78168  -0.77404  -0.76942
 Alpha  occ. eigenvalues --   -0.76838  -0.74355  -0.74028  -0.72981  -0.72569
 Alpha  occ. eigenvalues --   -0.71608  -0.70258  -0.69324  -0.68279  -0.65013
 Alpha  occ. eigenvalues --   -0.64859  -0.64631  -0.64359  -0.63383  -0.62859
 Alpha  occ. eigenvalues --   -0.62606  -0.62439  -0.61447  -0.61273  -0.60935
 Alpha  occ. eigenvalues --   -0.60047  -0.59779  -0.59057  -0.58484  -0.58377
 Alpha  occ. eigenvalues --   -0.58056  -0.57857  -0.57729  -0.57621  -0.57193
 Alpha  occ. eigenvalues --   -0.56735  -0.56629  -0.55975  -0.55560  -0.55245
 Alpha  occ. eigenvalues --   -0.55069  -0.54770  -0.54480  -0.54466  -0.54216
 Alpha  occ. eigenvalues --   -0.53997  -0.53464  -0.53214  -0.52979  -0.52340
 Alpha  occ. eigenvalues --   -0.51516  -0.50948  -0.50816  -0.50778  -0.50254
 Alpha  occ. eigenvalues --   -0.50200  -0.49607  -0.49149  -0.48914  -0.48691
 Alpha  occ. eigenvalues --   -0.48254  -0.48149  -0.47511  -0.47240  -0.46955
 Alpha  occ. eigenvalues --   -0.46738  -0.45950  -0.45869  -0.45406  -0.45047
 Alpha  occ. eigenvalues --   -0.44753  -0.44705  -0.44461  -0.44006  -0.43684
 Alpha  occ. eigenvalues --   -0.43272  -0.42916  -0.42673  -0.42578  -0.42368
 Alpha  occ. eigenvalues --   -0.42158  -0.41544  -0.40926  -0.40835  -0.40338
 Alpha  occ. eigenvalues --   -0.40059  -0.39878  -0.38669  -0.38174  -0.37924
 Alpha  occ. eigenvalues --   -0.37306  -0.37230  -0.35911  -0.35500  -0.33857
 Alpha  occ. eigenvalues --   -0.33109  -0.32785  -0.31411  -0.31173  -0.30490
 Alpha  occ. eigenvalues --   -0.27407  -0.27283  -0.26885  -0.20867  -0.20126
 Alpha  occ. eigenvalues --   -0.15964  -0.15442
 Alpha virt. eigenvalues --    0.26733   0.27486   0.27723   0.28382   0.31384
 Alpha virt. eigenvalues --    0.32879   0.45700   0.48483   0.48676   0.49097
 Alpha virt. eigenvalues --    0.49427   0.50010   0.50128   0.51557   0.52255
 Alpha virt. eigenvalues --    0.54823   0.55246   0.55432   0.55747   0.55860
 Alpha virt. eigenvalues --    0.56938   0.57401   0.57949   0.58256   0.58752
 Alpha virt. eigenvalues --    0.59291   0.59870   0.60254   0.60647   0.61102
 Alpha virt. eigenvalues --    0.61509   0.61769   0.62143   0.62569   0.62937
 Alpha virt. eigenvalues --    0.63411   0.63731   0.64485   0.64582   0.64896
 Alpha virt. eigenvalues --    0.65055   0.65532   0.65620   0.65927   0.66179
 Alpha virt. eigenvalues --    0.66661   0.66884   0.67102   0.67259   0.67504
 Alpha virt. eigenvalues --    0.67665   0.68169   0.68212   0.68464   0.68770
 Alpha virt. eigenvalues --    0.69241   0.69400   0.69871   0.70012   0.70173
 Alpha virt. eigenvalues --    0.70374   0.70457   0.70787   0.70918   0.71230
 Alpha virt. eigenvalues --    0.71412   0.71445   0.71836   0.72132   0.72517
 Alpha virt. eigenvalues --    0.72862   0.73176   0.73209   0.73621   0.73854
 Alpha virt. eigenvalues --    0.73931   0.74172   0.74460   0.74550   0.74948
 Alpha virt. eigenvalues --    0.75329   0.75368   0.75869   0.76111   0.76309
 Alpha virt. eigenvalues --    0.76461   0.76667   0.76739   0.77066   0.77509
 Alpha virt. eigenvalues --    0.77913   0.78051   0.78674   0.79053   0.79141
 Alpha virt. eigenvalues --    0.79431   0.79875   0.80290   0.80402   0.80580
 Alpha virt. eigenvalues --    0.80962   0.81139   0.81436   0.81580   0.81887
 Alpha virt. eigenvalues --    0.82017   0.83191   0.84274   0.84411   0.85088
 Alpha virt. eigenvalues --    0.85737   0.85850   0.86449   0.87295   0.87430
 Alpha virt. eigenvalues --    0.88245   0.89169   0.90851   0.91433   0.94583
 Alpha virt. eigenvalues --    0.94990   0.95873   0.97842   1.02403   1.03368
 Alpha virt. eigenvalues --    1.10125   1.11474   1.15785   1.16259
          Condensed to atoms (all electrons):
 Mulliken charges:
               1
     1  C   -0.077096
     2  C   -0.002114
     3  C   -0.064379
     4  C   -0.092742
     5  C    0.095323
     6  C   -0.015434
     7  N   -0.283432
     8  C    0.016519
     9  C    0.131852
    10  C    0.039861
    11  C   -0.115128
    12  C   -0.108085
    13  C    0.041223
    14  N   -0.296030
    15  C   -0.012497
    16  C   -0.095437
    17  C   -0.100438
    18  C   -0.094540
    19  C   -0.015862
    20  C   -0.099466
    21  C   -0.063004
    22  C    0.313988
    23  O   -0.266296
    24  O   -0.261260
    25  C   -0.057052
    26  C   -0.076110
    27  C   -0.110434
    28  C   -0.000089
    29  C   -0.079844
    30  C   -0.063308
    31  C   -0.090824
    32  C    0.095029
    33  C   -0.013935
    34  N   -0.281477
    35  C    0.015318
    36  C    0.134942
    37  C    0.039575
    38  C   -0.115943
    39  C   -0.105408
    40  C    0.040117
    41  N   -0.081338
    42  C   -0.003333
    43  C   -0.097267
    44  C   -0.099167
    45  C   -0.097984
    46  C   -0.005249
    47  C   -0.098434
    48  C   -0.058434
    49  C    0.327589
    50  O   -0.275963
    51  O   -0.255730
    52  C   -0.053997
    53  C   -0.077078
    54  O   -0.461585
    55  H    0.059826
    56  H    0.054978
    57  H    0.057969
    58  H    0.043422
    59  H    0.053492
    60  H    0.048501
    61  H    0.048633
    62  H    0.049508
    63  H    0.040355
    64  H    0.061811
    65  H    0.050317
    66  H    0.054667
    67  H    0.047326
    68  H    0.051812
    69  H    0.056596
    70  H    0.062195
    71  H    0.041997
    72  H    0.061399
    73  H    0.072269
    74  H    0.053450
    75  H    0.062687
    76  H    0.073107
    77  H    0.076358
    78  H    0.072056
    79  H    0.055598
    80  H    0.074450
    81  H    0.070018
    82  H    0.059737
    83  H    0.059238
    84  H    0.057663
    85  H    0.055510
    86  H    0.059880
    87  H    0.054802
    88  H    0.054360
    89  H    0.049169
    90  H    0.052982
    91  H    0.047001
    92  H    0.085565
    93  H    0.057194
    94  H    0.080484
    95  H    0.058095
    96  H    0.046869
    97  H    0.058126
    98  H    0.066730
    99  H    0.095186
   100  H    0.058926
   101  H    0.089858
   102  H    0.102069
   103  H    0.044567
   104  H    0.061704
   105  H    0.074166
   106  H    0.078173
   107  H    0.067163
   108  H    0.072274
   109  H    0.075031
   110  H    0.054565
 Sum of Mulliken charges =  -0.00000
 Mulliken charges with hydrogens summed into heavy atoms:
               1
     1  C   -0.017270
     2  C   -0.002114
     3  C   -0.009401
     4  C   -0.034773
     5  C    0.095323
     6  C   -0.015434
     7  N   -0.283432
     8  C    0.016519
     9  C    0.131852
    10  C    0.083283
    11  C   -0.013134
    12  C   -0.009944
    13  C    0.041223
    14  N   -0.296030
    15  C    0.089669
    16  C    0.009547
    17  C   -0.001300
    18  C    0.024251
    19  C    0.087534
    20  C    0.026253
    21  C   -0.000317
    22  C    0.313988
    23  O   -0.266296
    24  O   -0.261260
    25  C    0.164469
    26  C    0.123956
    27  C    0.008540
    28  C   -0.000089
    29  C   -0.022181
    30  C   -0.007799
    31  C   -0.030943
    32  C    0.095029
    33  C   -0.013935
    34  N   -0.281477
    35  C    0.015318
    36  C    0.134942
    37  C    0.094377
    38  C   -0.012414
    39  C   -0.005424
    40  C    0.040117
    41  N   -0.081338
    42  C    0.139426
    43  C    0.041312
    44  C    0.005829
    45  C    0.063932
    46  C    0.143535
    47  C    0.048201
    48  C    0.003270
    49  C    0.327589
    50  O   -0.275963
    51  O   -0.255730
    52  C    0.165505
    53  C    0.124791
    54  O   -0.461585
 Electronic spatial extent (au):  <R**2>=          37659.2373
 Charge=             -0.0000 electrons
 Dipole moment (field-independent basis, Debye):
    X=             -1.6988    Y=             -2.1896    Z=             -1.9511  Tot=              3.3893
 Quadrupole moment (field-independent basis, Debye-Ang):
   XX=           -282.0019   YY=           -299.2985   ZZ=           -295.3676
   XY=            -10.4680   XZ=             -5.4184   YZ=             -1.6398
 Traceless Quadrupole moment (field-independent basis, Debye-Ang):
   XX=             10.2207   YY=             -7.0758   ZZ=             -3.1449
   XY=            -10.4680   XZ=             -5.4184   YZ=             -1.6398
 Octapole moment (field-independent basis, Debye-Ang**2):
  XXX=              7.7516  YYY=            100.7082  ZZZ=            -16.2771  XYY=            -23.8734
  XXY=            -18.6508  XXZ=            -24.4106  XZZ=             12.5772  YZZ=             26.7932
  YYZ=             25.5859  XYZ=             -0.5771
 Hexadecapole moment (field-independent basis, Debye-Ang**3):
 XXXX=         -31363.8874 YYYY=          -7958.6104 ZZZZ=          -6746.0976 XXXY=           -276.7944
 XXXZ=            497.8858 YYYX=           -246.8033 YYYZ=             -9.9560 ZZZX=            146.2686
 ZZZY=              7.1885 XXYY=          -6704.2887 XXZZ=          -6365.5233 YYZZ=          -2418.2611
 XXYZ=            -50.3520 YYXZ=            173.6544 ZZXY=            104.9128
 N-N= 8.107813730011D+03 E-N=-2.159265282898D+04  KE= 2.279049871620D+03
 ******************************Gaussian NBO Version 3.1******************************
             N A T U R A L   A T O M I C   O R B I T A L   A N D
          N A T U R A L   B O N D   O R B I T A L   A N A L Y S I S
 ******************************Gaussian NBO Version 3.1******************************
       /RESON  / : Allow strongly delocalized NBO set
       /NLMO   / : Form Natural Localized Molecular Orbitals
       /NMR /    : Analyze NMR Sheilding Tensor 

 Analyzing the SCF density

 Job title: Pleiokomenine_C_2                                               

 Storage needed:    355564 in NPA,    438187 in NBO,   2133784 in NLMO ( 104796000 available)
 GSVD:  LWork=     -108884 too small for GESVD, short by      536270 words or      536270 for optimal perf.


 NATURAL POPULATIONS:  Natural atomic orbital occupancies 
                                                          
   NAO  Atom  No  lang   Type(AO)    Occupancy      Energy
 ----------------------------------------------------------
     1    C    1  S      Cor( 1S)     1.99992     -10.94481
     2    C    1  S      Val( 2S)     1.07867      -0.17655
     3    C    1  px     Val( 2p)     0.99430       0.08236
     4    C    1  py     Val( 2p)     1.00226       0.08359
     5    C    1  pz     Val( 2p)     0.98399       0.15417
 
     6    C    2  S      Cor( 1S)     1.99991     -10.95366
     7    C    2  S      Val( 2S)     1.07898      -0.18261
     8    C    2  px     Val( 2p)     0.96980       0.10098
     9    C    2  py     Val( 2p)     0.98117       0.09439
    10    C    2  pz     Val( 2p)     0.95885       0.17613
 
    11    C    3  S      Cor( 1S)     1.99994     -10.94582
    12    C    3  S      Val( 2S)     1.08400      -0.18119
    13    C    3  px     Val( 2p)     0.99038       0.08655
    14    C    3  py     Val( 2p)     0.99041       0.08811
    15    C    3  pz     Val( 2p)     0.97114       0.16132
 
    16    C    4  S      Cor( 1S)     1.99993     -10.93813
    17    C    4  S      Val( 2S)     1.07100      -0.17068
    18    C    4  px     Val( 2p)     1.02361       0.07522
    19    C    4  py     Val( 2p)     1.01615       0.08277
    20    C    4  pz     Val( 2p)     0.98059       0.15954
 
    21    C    5  S      Cor( 1S)     1.99986     -10.98805
    22    C    5  S      Val( 2S)     1.05873      -0.18231
    23    C    5  px     Val( 2p)     0.93137       0.09343
    24    C    5  py     Val( 2p)     0.90831       0.11340
    25    C    5  pz     Val( 2p)     0.98203       0.14304
 
    26    C    6  S      Cor( 1S)     1.99990     -10.94617
    27    C    6  S      Val( 2S)     1.08493      -0.18894
    28    C    6  px     Val( 2p)     1.00143       0.08702
    29    C    6  py     Val( 2p)     0.97709       0.11138
    30    C    6  pz     Val( 2p)     0.96186       0.14609
 
    31    N    7  S      Cor( 1S)     1.99998     -15.26583
    32    N    7  S      Val( 2S)     1.38877      -0.58376
    33    N    7  px     Val( 2p)     1.24967      -0.05220
    34    N    7  py     Val( 2p)     1.56275      -0.17571
    35    N    7  pz     Val( 2p)     1.07142       0.02402
 
    36    C    8  S      Cor( 1S)     1.99996     -11.00385
    37    C    8  S      Val( 2S)     1.10743      -0.22889
    38    C    8  px     Val( 2p)     0.94402       0.10601
    39    C    8  py     Val( 2p)     0.97917       0.08151
    40    C    8  pz     Val( 2p)     0.95245       0.11438
 
    41    C    9  S      Cor( 1S)     1.99996     -11.04675
    42    C    9  S      Val( 2S)     1.10992      -0.25047
    43    C    9  px     Val( 2p)     0.93515       0.09819
    44    C    9  py     Val( 2p)     0.94140       0.08633
    45    C    9  pz     Val( 2p)     0.83969       0.12303
 
    46    C   10  S      Cor( 1S)     1.99994     -11.01237
    47    C   10  S      Val( 2S)     1.09297      -0.21299
    48    C   10  px     Val( 2p)     0.96347       0.08347
    49    C   10  py     Val( 2p)     0.93235       0.11892
    50    C   10  pz     Val( 2p)     0.93927       0.09009
 
    51    C   11  S      Cor( 1S)     1.99994     -10.97684
    52    C   11  S      Val( 2S)     1.10396      -0.21169
    53    C   11  px     Val( 2p)     1.00168       0.08308
    54    C   11  py     Val( 2p)     0.99671       0.08649
    55    C   11  pz     Val( 2p)     0.98259       0.09176
 
    56    C   12  S      Cor( 1S)     1.99996     -10.97443
    57    C   12  S      Val( 2S)     1.08852      -0.19459
    58    C   12  px     Val( 2p)     1.00753       0.09069
    59    C   12  py     Val( 2p)     1.00352       0.09057
    60    C   12  pz     Val( 2p)     0.97874       0.09148
 
    61    C   13  S      Cor( 1S)     1.99998     -11.00243
    62    C   13  S      Val( 2S)     1.10056      -0.21977
    63    C   13  px     Val( 2p)     0.94804       0.10963
    64    C   13  py     Val( 2p)     0.94437       0.11195
    65    C   13  pz     Val( 2p)     0.94441       0.11441
 
    66    N   14  S      Cor( 1S)     1.99999     -15.23168
    67    N   14  S      Val( 2S)     1.41461      -0.57663
    68    N   14  px     Val( 2p)     1.23366      -0.02852
    69    N   14  py     Val( 2p)     1.56584      -0.15903
    70    N   14  pz     Val( 2p)     1.07186       0.04146
 
    71    C   15  S      Cor( 1S)     1.99994     -11.00803
    72    C   15  S      Val( 2S)     1.06951      -0.18825
    73    C   15  px     Val( 2p)     0.99191       0.07763
    74    C   15  py     Val( 2p)     1.01269       0.08628
    75    C   15  pz     Val( 2p)     0.88392       0.11899
 
    76    C   16  S      Cor( 1S)     1.99996     -10.97695
    77    C   16  S      Val( 2S)     1.08441      -0.19045
    78    C   16  px     Val( 2p)     0.96608       0.10152
    79    C   16  py     Val( 2p)     1.01127       0.09138
    80    C   16  pz     Val( 2p)     0.99678       0.09670
 
    81    C   17  S      Cor( 1S)     1.99995     -10.97836
    82    C   17  S      Val( 2S)     1.09056      -0.19661
    83    C   17  px     Val( 2p)     0.99925       0.09283
    84    C   17  py     Val( 2p)     1.00616       0.09107
    85    C   17  pz     Val( 2p)     0.96858       0.09760
 
    86    C   18  S      Cor( 1S)     1.99994     -10.97599
    87    C   18  S      Val( 2S)     1.09368      -0.19611
    88    C   18  px     Val( 2p)     0.99132       0.09368
    89    C   18  py     Val( 2p)     0.99879       0.09395
    90    C   18  pz     Val( 2p)     0.97754       0.09417
 
    91    C   19  S      Cor( 1S)     1.99995     -11.00437
    92    C   19  S      Val( 2S)     1.07172      -0.18880
    93    C   19  px     Val( 2p)     0.90541       0.12283
    94    C   19  py     Val( 2p)     1.01520       0.08449
    95    C   19  pz     Val( 2p)     0.96996       0.07242
 
    96    C   20  S      Cor( 1S)     1.99992     -10.98208
    97    C   20  S      Val( 2S)     1.10219      -0.20956
    98    C   20  px     Val( 2p)     1.01951       0.08619
    99    C   20  py     Val( 2p)     0.99505       0.08747
   100    C   20  pz     Val( 2p)     0.94460       0.10046
 
   101    C   21  S      Cor( 1S)     1.99994     -11.00763
   102    C   21  S      Val( 2S)     1.11389      -0.23964
   103    C   21  px     Val( 2p)     1.00737       0.06778
   104    C   21  py     Val( 2p)     0.96686       0.08375
   105    C   21  pz     Val( 2p)     0.99047       0.07326
 
   106    C   22  S      Cor( 1S)     1.99990     -11.10644
   107    C   22  S      Val( 2S)     1.05783      -0.25861
   108    C   22  px     Val( 2p)     0.83732       0.09047
   109    C   22  py     Val( 2p)     0.87323       0.10392
   110    C   22  pz     Val( 2p)     0.83611       0.09267
 
   111    O   23  S      Cor( 1S)     1.99999     -20.09455
   112    O   23  S      Val( 2S)     1.80764      -1.05206
   113    O   23  px     Val( 2p)     1.31467      -0.12085
   114    O   23  py     Val( 2p)     1.87244      -0.32278
   115    O   23  pz     Val( 2p)     1.30496      -0.11536
 
   116    O   24  S      Cor( 1S)     1.99999     -20.20911
   117    O   24  S      Val( 2S)     1.73252      -1.02512
   118    O   24  px     Val( 2p)     1.69462      -0.30602
   119    O   24  py     Val( 2p)     1.12843      -0.05269
   120    O   24  pz     Val( 2p)     1.71788      -0.31416
 
   121    C   25  S      Cor( 1S)     1.99984     -11.04252
   122    C   25  S      Val( 2S)     1.07715      -0.22470
   123    C   25  px     Val( 2p)     1.02112       0.04681
   124    C   25  py     Val( 2p)     0.84175       0.07868
   125    C   25  pz     Val( 2p)     1.02663       0.04540
 
   126    C   26  S      Cor( 1S)     1.99993     -11.01755
   127    C   26  S      Val( 2S)     1.06308      -0.19503
   128    C   26  px     Val( 2p)     0.97876       0.07209
   129    C   26  py     Val( 2p)     1.03382       0.05931
   130    C   26  pz     Val( 2p)     0.93819       0.08022
 
   131    C   27  S      Cor( 1S)     1.99995     -10.98259
   132    C   27  S      Val( 2S)     1.08412      -0.18866
   133    C   27  px     Val( 2p)     0.97803       0.10140
   134    C   27  py     Val( 2p)     1.00073       0.08808
   135    C   27  pz     Val( 2p)     1.02423       0.08444
 
   136    C   28  S      Cor( 1S)     1.99990     -10.95566
   137    C   28  S      Val( 2S)     1.08040      -0.18453
   138    C   28  px     Val( 2p)     0.96241       0.11296
   139    C   28  py     Val( 2p)     0.96752       0.14674
   140    C   28  pz     Val( 2p)     0.97488       0.10995
 
   141    C   29  S      Cor( 1S)     1.99992     -10.94591
   142    C   29  S      Val( 2S)     1.07767      -0.17772
   143    C   29  px     Val( 2p)     0.99100       0.09670
   144    C   29  py     Val( 2p)     0.99334       0.12351
   145    C   29  pz     Val( 2p)     1.00209       0.09309
 
   146    C   30  S      Cor( 1S)     1.99994     -10.94618
   147    C   30  S      Val( 2S)     1.08451      -0.18190
   148    C   30  px     Val( 2p)     0.98447       0.10393
   149    C   30  py     Val( 2p)     0.98175       0.12960
   150    C   30  pz     Val( 2p)     0.98458       0.10280
 
   151    C   31  S      Cor( 1S)     1.99993     -10.93930
   152    C   31  S      Val( 2S)     1.07142      -0.17123
   153    C   31  px     Val( 2p)     1.01529       0.09158
   154    C   31  py     Val( 2p)     0.98845       0.13151
   155    C   31  pz     Val( 2p)     1.01408       0.09368
 
   156    C   32  S      Cor( 1S)     1.99985     -10.98857
   157    C   32  S      Val( 2S)     1.05980      -0.18424
   158    C   32  px     Val( 2p)     0.91896       0.11049
   159    C   32  py     Val( 2p)     0.95164       0.14475
   160    C   32  pz     Val( 2p)     0.95079       0.09263
 
   161    C   33  S      Cor( 1S)     1.99990     -10.94943
   162    C   33  S      Val( 2S)     1.08589      -0.19353
   163    C   33  px     Val( 2p)     0.99419       0.10350
   164    C   33  py     Val( 2p)     0.94931       0.13524
   165    C   33  pz     Val( 2p)     0.99304       0.09670
 
   166    N   34  S      Cor( 1S)     1.99998     -15.26574
   167    N   34  S      Val( 2S)     1.39293      -0.58490
   168    N   34  px     Val( 2p)     1.17491      -0.01888
   169    N   34  py     Val( 2p)     1.30129      -0.07362
   170    N   34  pz     Val( 2p)     1.40239      -0.10700
 
   171    C   35  S      Cor( 1S)     1.99996     -11.01205
   172    C   35  S      Val( 2S)     1.10397      -0.23575
   173    C   35  px     Val( 2p)     0.95301       0.09600
   174    C   35  py     Val( 2p)     0.96622       0.10189
   175    C   35  pz     Val( 2p)     0.96545       0.07858
 
   176    C   36  S      Cor( 1S)     1.99996     -11.04892
   177    C   36  S      Val( 2S)     1.11453      -0.25530
   178    C   36  px     Val( 2p)     0.93784       0.09635
   179    C   36  py     Val( 2p)     0.90182       0.10536
   180    C   36  pz     Val( 2p)     0.86709       0.10608
 
   181    C   37  S      Cor( 1S)     1.99991     -11.03231
   182    C   37  S      Val( 2S)     1.10922      -0.24919
   183    C   37  px     Val( 2p)     0.97773       0.06421
   184    C   37  py     Val( 2p)     0.85121       0.09235
   185    C   37  pz     Val( 2p)     0.99319       0.06516
 
   186    C   38  S      Cor( 1S)     1.99993     -10.97812
   187    C   38  S      Val( 2S)     1.10887      -0.21696
   188    C   38  px     Val( 2p)     1.01145       0.08024
   189    C   38  py     Val( 2p)     0.99496       0.08903
   190    C   38  pz     Val( 2p)     0.96923       0.08923
 
   191    C   39  S      Cor( 1S)     1.99996     -10.97933
   192    C   39  S      Val( 2S)     1.09077      -0.20088
   193    C   39  px     Val( 2p)     1.01830       0.08351
   194    C   39  py     Val( 2p)     0.98020       0.08681
   195    C   39  pz     Val( 2p)     0.98533       0.09050
 
   196    C   40  S      Cor( 1S)     1.99998     -11.01176
   197    C   40  S      Val( 2S)     1.09916      -0.22637
   198    C   40  px     Val( 2p)     0.93264       0.10911
   199    C   40  py     Val( 2p)     0.95515       0.10067
   200    C   40  pz     Val( 2p)     0.95412       0.10191
 
   201    N   41  S      Cor( 1S)     1.99999     -15.41637
   202    N   41  S      Val( 2S)     1.39312      -0.65651
   203    N   41  px     Val( 2p)     1.20893      -0.12542
   204    N   41  py     Val( 2p)     1.18775      -0.10583
   205    N   41  pz     Val( 2p)     1.17720      -0.10361
 
   206    C   42  S      Cor( 1S)     1.99992     -11.03664
   207    C   42  S      Val( 2S)     1.09137      -0.23361
   208    C   42  px     Val( 2p)     1.00346       0.05408
   209    C   42  py     Val( 2p)     1.00438       0.05635
   210    C   42  pz     Val( 2p)     0.85098       0.09080
 
   211    C   43  S      Cor( 1S)     1.99995     -10.99068
   212    C   43  S      Val( 2S)     1.08728      -0.20467
   213    C   43  px     Val( 2p)     0.95507       0.09495
   214    C   43  py     Val( 2p)     1.00667       0.07704
   215    C   43  pz     Val( 2p)     1.01450       0.08284
 
   216    C   44  S      Cor( 1S)     1.99994     -10.98685
   217    C   44  S      Val( 2S)     1.09175      -0.20538
   218    C   44  px     Val( 2p)     1.00565       0.08369
   219    C   44  py     Val( 2p)     0.98263       0.08926
   220    C   44  pz     Val( 2p)     0.98247       0.08748
 
   221    C   45  S      Cor( 1S)     1.99993     -10.98480
   222    C   45  S      Val( 2S)     1.09878      -0.20743
   223    C   45  px     Val( 2p)     0.98669       0.08761
   224    C   45  py     Val( 2p)     0.99266       0.08066
   225    C   45  pz     Val( 2p)     0.98875       0.09184
 
   226    C   46  S      Cor( 1S)     1.99993     -11.03064
   227    C   46  S      Val( 2S)     1.09471      -0.23192
   228    C   46  px     Val( 2p)     0.88670       0.09033
   229    C   46  py     Val( 2p)     1.01323       0.05535
   230    C   46  pz     Val( 2p)     0.96013       0.05991
 
   231    C   47  S      Cor( 1S)     1.99991     -10.97329
   232    C   47  S      Val( 2S)     1.10305      -0.20078
   233    C   47  px     Val( 2p)     0.98950       0.10191
   234    C   47  py     Val( 2p)     1.03509       0.09303
   235    C   47  pz     Val( 2p)     0.93287       0.10944
 
   236    C   48  S      Cor( 1S)     1.99994     -11.00234
[...]
   98      -0.0910        0.2121      -0.3032        -1.0024       0.9114
   99      -0.5963        0.4959      -1.0922        -1.4648       0.8686
  102       1.7532       -0.9134       2.6666         0.8489       0.9043
  103       0.0560        1.2602      -1.2042        -0.9277       0.9838
  105       0.6917        2.4066      -1.7149        -0.4791       1.1708
  106      25.7696       -0.1421      25.9116         0.5253      25.2443
  107       1.7045        3.6193      -1.9149        -0.1305       1.8349
  109       0.1015       -0.1820       0.2835        -0.9062       1.0077
  195       0.2182       -1.0000       1.2182         1.1394      -0.9212
 Sum       29.0605        6.1441      22.9164        -3.5154      32.5758

 Contributions to Isotropic shielding for atom   95 (    32.3865 ppm):
                         Standard Origin              Atomic Origin
 NLMO      Total    Paramagnetic  Diamagnetic   Paramagnetic  Diamagnetic
   89      -0.2977        0.2964      -0.5940        -1.0321       0.7344
  102       1.6358       -0.0115       1.6473         0.6648       0.9710
  103       0.3017        1.3211      -1.0194        -0.5789       0.8806
  104       0.0924        1.1187      -1.0263        -0.8575       0.9499
  105       0.6191        2.8880      -2.2689        -0.4875       1.1066
  106       1.9128        3.6127      -1.7000         0.0702       1.8425
  107      26.3351       -0.1757      26.5108         0.5223      25.8129
  108       0.0532       -0.2893       0.3425        -1.0719       1.1251
 Sum       30.6524        8.7604      21.8920        -2.7706      33.4230

 Contributions to Isotropic shielding for atom   96 (    32.7640 ppm):
                         Standard Origin              Atomic Origin
 NLMO      Total    Paramagnetic  Diamagnetic   Paramagnetic  Diamagnetic
   90      -0.1448        1.1369      -1.2817        -0.8181       0.6733
   94      -0.2034        0.6429      -0.8463        -1.1436       0.9402
   97       1.8746       -1.0440       2.9186         0.9219       0.9526
  105       1.3720       -0.1743       1.5463         0.2361       1.1359
  107       0.0420        0.0620      -0.0200        -0.9794       1.0214
  108      26.5387        0.2155      26.3231         0.4731      26.0656
  109       1.4840        3.9125      -2.4285        -0.3556       1.8396
 Sum       30.9629        4.7515      26.2114        -1.6657      32.6286

 Contributions to Isotropic shielding for atom   97 (    32.1697 ppm):
                         Standard Origin              Atomic Origin
 NLMO      Total    Paramagnetic  Diamagnetic   Paramagnetic  Diamagnetic
   89      -0.4195        0.3585      -0.7779        -1.1406       0.7211
   94      -0.1900        1.4246      -1.6146        -0.7182       0.5282
   97       0.9244        1.8113      -0.8869        -0.0431       0.9675
   98      -0.3499        1.7405      -2.0905        -1.3355       0.9856
  105       0.6726        2.8279      -2.1553        -0.4082       1.0808
  106       0.0719        0.8363      -0.7644        -1.0391       1.1110
  107       0.3272        1.0269      -0.6997        -0.5356       0.8628
  108       1.9202        3.0107      -1.0905         0.1923       1.7278
  109      26.4777       -0.4002      26.8780         0.7219      25.7558
 Sum       29.4346       12.6365      16.7981        -4.3060      33.7406

 Contributions to Isotropic shielding for atom   98 (    33.1075 ppm):
                         Standard Origin              Atomic Origin
 NLMO      Total    Paramagnetic  Diamagnetic   Paramagnetic  Diamagnetic
   71      -0.0503       -1.0964       1.0460        -1.0743       1.0239
   80       0.2900       -0.9606       1.2506        -0.8109       1.1009
   81       0.2941       -0.8650       1.1591        -0.5036       0.7977
   85       1.0160        0.5839       0.4321         0.3872       0.6288
  110       1.3981       -0.8944       2.2925         0.5814       0.8167
  111      25.9478        0.5560      25.3917         0.4585      25.4893
  112       1.9180        0.7628       1.1552        -0.0094       1.9274
  121       0.0421       -1.2169       1.2590        -0.7592       0.8014
 Sum       30.8557       -3.1306      33.9863        -1.7304      32.5861

 Contributions to Isotropic shielding for atom   99 (    31.5082 ppm):
                         Standard Origin              Atomic Origin
 NLMO      Total    Paramagnetic  Diamagnetic   Paramagnetic  Diamagnetic
   85       0.2482        1.9807      -1.7324        -0.5582       0.8064
   87       0.0290       -1.1022       1.1312        -0.8067       0.8357
  110       1.0310        0.7749       0.2561         0.3040       0.7271
  111       1.9833        0.1496       1.8337         0.0644       1.9189
  112      25.4425        0.0720      25.3705         0.5403      24.9023
  114       0.0569       -0.0871       0.1440        -0.9432       1.0001
  115       0.0615       -1.0141       1.0756        -0.5090       0.5705
  118       0.7643       -1.3806       2.1448        -0.0657       0.8300
  120       1.4158       -0.7138       2.1296         0.5653       0.8505
  121      -0.2281       -3.4455       3.2174        -1.2662       1.0381
  123       0.2768       -1.2187       1.4954        -0.4822       0.7589
  191      -0.7261        1.5897      -2.3158         0.2413      -0.9673
  195      -0.1109        0.9556      -1.0665         0.9103      -1.0212
 Sum       30.2444       -3.4394      33.6837        -2.0056      32.2500

 Contributions to Isotropic shielding for atom  100 (    32.3410 ppm):
                         Standard Origin              Atomic Origin
 NLMO      Total    Paramagnetic  Diamagnetic   Paramagnetic  Diamagnetic
   71       0.1755       -0.7290       0.9045        -0.9606       1.1361
   84       0.1672       -0.9098       1.0770        -0.6505       0.8176
   89       0.9750       -0.6650       1.6400         0.0679       0.9071
   90      -0.0760       -1.0173       0.9412        -0.7994       0.7234
   99       0.5766       -0.5437       1.1203        -0.1339       0.7106
  100       0.4629        1.1392      -0.6763         0.0090       0.4539
  103       0.1490       -0.9380       1.0870        -0.5826       0.7315
  104      -0.0103       -1.3820       1.3717        -0.8126       0.8023
  110       1.0721       -0.6782       1.7503         0.2419       0.8303
  113      26.2367        0.6369      25.5997         0.5964      25.6403
  114       1.6828       -0.3257       2.0085        -0.1573       1.8401
 Sum       31.4114       -5.4126      36.8240        -3.1818      34.5932

 Contributions to Isotropic shielding for atom  101 (    31.3492 ppm):
                         Standard Origin              Atomic Origin
 NLMO      Total    Paramagnetic  Diamagnetic   Paramagnetic  Diamagnetic
  100      -0.0359        1.6539      -1.6899        -0.7998       0.7639
  101       0.1379       -1.0861       1.2239        -0.8802       1.0181
  103      -0.0532       -1.3731       1.3199        -0.8787       0.8255
  112       0.1537       -0.3853       0.5390        -0.8780       1.0317
  113       1.9649       -0.4645       2.4294         0.2781       1.6868
  114      25.6984        0.5911      25.1074         0.8321      24.8664
  195       0.0365        1.0514      -1.0149         0.8548      -0.8183
 Sum       27.9023       -0.0125      27.9148        -1.4717      29.3740

 Contributions to Isotropic shielding for atom  102 (    29.9267 ppm):
                         Standard Origin              Atomic Origin
 NLMO      Total    Paramagnetic  Diamagnetic   Paramagnetic  Diamagnetic
   89      -0.6644        0.4051      -1.0695        -1.5642       0.8998
   97      -0.1869        0.7415      -0.9284        -1.0120       0.8251
   98       1.6122       -0.7917       2.4039         0.7053       0.9069
  115       1.2463       -0.0195       1.2658         0.3756       0.8707
  116      25.2390        0.0546      25.1844         0.5990      24.6400
  117       1.0013        3.8261      -2.8248        -0.9184       1.9198
  118      -0.3881        0.3120      -0.7000        -1.3379       0.9498
  119       0.2927        1.1952      -0.9025        -0.2218       0.5145
  122       0.7699       -1.0964       1.8663        -0.4378       1.2077
  193      -1.1211        0.7174      -1.8385         0.2896      -1.4107
 Sum       27.8010        5.3443      22.4567        -3.5225      31.3235

 Contributions to Isotropic shielding for atom  103 (    31.8292 ppm):
                         Standard Origin              Atomic Origin
 NLMO      Total    Paramagnetic  Diamagnetic   Paramagnetic  Diamagnetic
   94      -0.3747        1.4217      -1.7965        -1.3398       0.9651
   97      -0.2243        1.5373      -1.7616        -0.8325       0.6082
   98       0.9318        1.8544      -0.9226        -0.0484       0.9802
  109      -0.0393       -1.0533       1.0140        -0.8326       0.7933
  115       0.6530        3.1714      -2.5184        -0.4535       1.1065
  116       1.8721        3.7844      -1.9123        -0.1712       2.0433
  117      26.9591       -0.8190      27.7780         0.8600      26.0990
  119      -0.2302        0.4863      -0.7165        -1.3708       1.1406
  122       0.2236       -0.3975       0.6212        -0.8936       1.1172
 Sum       29.7710        9.9857      19.7853        -5.0824      34.8534

 Contributions to Isotropic shielding for atom  104 (    31.4399 ppm):
                         Standard Origin              Atomic Origin
 NLMO      Total    Paramagnetic  Diamagnetic   Paramagnetic  Diamagnetic
   81      -0.6648        1.3066      -1.9714        -1.3638       0.6990
   82      -0.1118        0.3588      -0.4705        -1.0826       0.9708
   86      -0.4789        1.7229      -2.2018        -1.5972       1.1183
   87       1.4759        1.3581       0.1178         0.5540       0.9219
   93      -0.0713       -1.6071       1.5357        -0.8389       0.7676
  115       0.7229        4.4399      -3.7170        -0.5466       1.2695
  117      -0.0824       -0.5662       0.4838        -1.2307       1.1483
  118       0.7070        4.6255      -3.9185        -0.4044       1.1114
  119      26.2720       -0.9551      27.2272         0.5662      25.7058
  122      -0.3558       -0.0698      -0.2860        -1.6965       1.3407
  127      -0.2286       -2.0079       1.7792        -0.7058       0.4772
 Sum       27.1842        8.6057      18.5785        -8.3462      35.5304

 Contributions to Isotropic shielding for atom  105 (    30.6716 ppm):
                         Standard Origin              Atomic Origin
 NLMO      Total    Paramagnetic  Diamagnetic   Paramagnetic  Diamagnetic
  120      -0.4838        0.0621      -0.5459        -1.1118       0.6281
  121       0.0190        0.6600      -0.6410        -1.0244       1.0434
  123       0.5240        2.9590      -2.4350        -1.5633       2.0874
  124      26.1638        0.3997      25.7640         0.8771      25.2866
  125       1.7858        0.1597       1.6261        -0.2147       2.0005
  126       0.8712        3.5341      -2.6629        -1.1024       1.9736
  193       0.5865       -0.9404       1.5268         1.0548      -0.4684
 Sum       29.4664        6.8342      22.6322        -3.0847      32.5512

 Contributions to Isotropic shielding for atom  106 (    30.6258 ppm):
                         Standard Origin              Atomic Origin
 NLMO      Total    Paramagnetic  Diamagnetic   Paramagnetic  Diamagnetic
  120      -0.5379        0.2076      -0.7455        -1.4429       0.9050
  121      -0.1414        0.5517      -0.6931        -1.6840       1.5425
  122      -0.1466        0.2530      -0.3996        -1.0386       0.8920
  123       2.6388       -5.1282       7.7670         1.2371       1.4016
  124       1.5692        0.3912       1.1780        -0.4670       2.0362
  125      25.7955        1.0531      24.7424         0.6976      25.0979
  126       1.5522       -0.0142       1.5664        -0.3115       1.8638
  193       0.5642        1.0739      -0.5097         0.6067      -0.0425
  194       0.1450       -0.9948       1.1399        -0.4156       0.5606
 Sum       31.4391       -2.6067      34.0458        -2.8182      34.2573

 Contributions to Isotropic shielding for atom  107 (    30.6329 ppm):
                         Standard Origin              Atomic Origin
 NLMO      Total    Paramagnetic  Diamagnetic   Paramagnetic  Diamagnetic
  120      -1.0866        0.5679      -1.6546        -1.9754       0.8887
  121      -0.2946        1.6071      -1.9017        -1.8547       1.5600
  122      -0.9154        0.3713      -1.2866        -1.6879       0.7725
  123       0.8182        1.1258      -0.3076        -0.6884       1.5066
  124       1.1919        3.7539      -2.5619        -0.8391       2.0310
  125       1.9155       -0.7627       2.6782         0.0445       1.8710
  126      26.3801        0.5468      25.8332         1.0074      25.3727
  191       0.4205       -1.2651       1.6856         1.1875      -0.7670
  193       1.3387       -0.5021       1.8408         1.3871      -0.0483
 Sum       29.7683        5.4429      24.3254        -3.4191      33.1873

 Contributions to Isotropic shielding for atom  108 (    31.5190 ppm):
                         Standard Origin              Atomic Origin
 NLMO      Total    Paramagnetic  Diamagnetic   Paramagnetic  Diamagnetic
   76      -0.5420        0.0568      -0.5988        -1.3813       0.8393
   81      -0.6071        1.6248      -2.2318        -1.3316       0.7245
   82       1.2489       -0.8557       2.1046         0.0486       1.2004
   86      -0.2580        0.8412      -1.0992        -1.0035       0.7454
   87      -0.2090        0.9633      -1.1723        -1.1064       0.8974
  119      -0.1735       -1.3795       1.2060        -0.7014       0.5279
  121      -0.1328        0.2124      -0.3453        -1.1978       1.0649
  127      26.0211        0.1460      25.8751         0.5954      25.4258
  128       1.7844        2.6433      -0.8590        -0.2058       1.9902
  129       1.1207        2.7983      -1.6776        -0.6913       1.8120
  190       1.3368        0.1075       1.2293         1.3169       0.0199
 Sum       29.5894        7.1585      22.4310        -5.6582      35.2476

 Contributions to Isotropic shielding for atom  109 (    30.7969 ppm):
                         Standard Origin              Atomic Origin
 NLMO      Total    Paramagnetic  Diamagnetic   Paramagnetic  Diamagnetic
   75      -0.5451        0.6371      -1.1822        -1.2545       0.7094
   76      -0.8201        0.1696      -0.9897        -2.1802       1.3602
   79      -0.3382        0.9985      -1.3367        -0.9682       0.6300
   82       1.8813       -1.9480       3.8293         0.6778       1.2035
  127       1.6276        2.6817      -1.0541        -0.3417       1.9692
  128      25.8644        0.3167      25.5478         0.5679      25.2966
  129       1.3744        2.1500      -0.7756        -0.4246       1.7990
 Sum       29.0443        5.0055      24.0388        -3.9235      32.9679

 Contributions to Isotropic shielding for atom  110 (    31.9654 ppm):
                         Standard Origin              Atomic Origin
 NLMO      Total    Paramagnetic  Diamagnetic   Paramagnetic  Diamagnetic
   75      -0.3571        0.8261      -1.1833        -0.9523       0.5951
   76      -1.1192        0.3528      -1.4719        -2.2889       1.1698
   79      -0.4405        1.1768      -1.6173        -0.9657       0.5252
   81      -0.4234        0.7981      -1.2215        -0.6713       0.2479
   82       1.5077       -1.4976       3.0053         0.7272       0.7805
   86      -0.1410        0.3027      -0.4437        -1.2084       1.0673
  127       1.7829        3.5193      -1.7364        -0.1201       1.9030
  128       1.8776        2.5063      -0.6287        -0.0242       1.9017
  129      26.7369        0.5191      26.2178         1.0064      25.7306
 Sum       29.4239        8.5036      20.9203        -4.4973      33.9212
 
 1\1\GINC-PCSN02\SP\RHF\STO-3G\C45H56N4O5\ABENIDD\30-May-2024\0\\# nmr=
 giao hf/sto-3g pop=nbo geom=connectivity\\Pleiokomenine_C_2\\0,1\C,0,0
 .,0.,0.\C,0,1.4033,0.,0.\C,0,2.0991,1.2277,0.\C,0,1.4166,2.4508,0.0198
 \C,0,0.034,2.4445,0.036\C,0,-0.6604,1.217,0.042\N,0,-0.8475,3.5532,0.0
 478\C,0,-2.1327,1.5122,0.2064\C,0,-2.1218,2.9561,-0.4141\C,0,-3.2017,0
 .6759,-0.4992\C,0,-2.0638,2.84,-2.0044\C,0,-3.2591,2.0636,-2.5592\C,0,
 -4.1135,1.5426,-1.3976\N,0,-4.0499,0.1908,0.5912\C,0,-4.9811,-0.8278,0
 .1663\C,0,-5.968,-0.1503,-0.7999\C,0,-5.275,0.6586,-1.9128\C,0,-2.4383
 ,1.285,1.7122\C,0,-3.1947,-0.0456,1.7294\C,0,-4.617,2.7989,-0.6022\C,0
 ,-3.435,3.7209,-0.1511\C,0,-3.6366,4.3079,1.2396\O,0,-2.7691,4.5198,2.
 0742\O,0,-4.9444,4.677,1.4017\C,0,-5.2333,5.2605,2.6729\C,0,-0.3717,4.
 8294,-0.448\C,0,2.1657,-1.3101,0.0484\C,0,1.8153,-2.1983,1.2289\C,0,1.
 6048,-1.6539,2.5055\C,0,1.7026,-3.5945,1.0442\C,0,1.3612,-4.4489,2.101
 7\C,0,1.1383,-3.9034,3.3511\C,0,1.2414,-2.5063,3.5345\N,0,0.822,-4.570
 2,4.5647\C,0,0.7804,-2.195,4.9413\C,0,1.2198,-3.562,5.5747\C,0,1.3849,
 -1.088,5.7862\C,0,2.8298,-3.605,5.6859\C,0,3.3874,-2.3686,6.3975\C,0,2
 .2179,-1.563,6.9858\N,0,0.2156,-0.2329,6.2491\C,0,0.7633,1.0718,6.7248
 \C,0,1.6645,0.8016,7.947\C,0,2.7243,-0.3043,7.732\C,0,-0.6964,-1.7399,
 4.7423\C,0,-0.6559,-0.2319,5.0483\C,0,1.4409,-2.5819,7.8885\C,0,0.7751
 ,-3.7326,7.0453\C,0,-0.7143,-3.9175,7.2961\O,0,-1.5254,-4.3451,6.485\O
 ,0,-1.0073,-3.703,8.613\C,0,-2.3974,-3.7925,8.9195\C,0,1.1676,-5.9709,
 4.701\O,0,-0.5397,-0.7652,7.2655\H,0,-0.5546,-0.9337,0.0256\H,0,3.1871
 ,1.2378,0.0015\H,0,1.9754,3.3794,0.0317\H,0,-2.7504,-0.1545,-1.0592\H,
 0,-1.1412,2.3584,-2.3516\H,0,-2.0464,3.8407,-2.4563\H,0,-3.8531,2.7111
 ,-3.2161\H,0,-2.8987,1.2364,-3.1834\H,0,-4.4728,-1.6693,-0.319\H,0,-5.
 5425,-1.2251,1.0193\H,0,-6.6205,-0.9075,-1.2497\H,0,-6.6207,0.524,-0.2
 302\H,0,-4.8817,-0.0567,-2.6475\H,0,-6.0176,1.2687,-2.4406\H,0,-1.5548
 ,1.2423,2.3583\H,0,-3.099,2.0507,2.1219\H,0,-2.5279,-0.9028,1.5876\H,0
 ,-3.7544,-0.1707,2.661\H,0,-5.2191,2.4877,0.2591\H,0,-5.2925,3.3859,-1
 .239\H,0,-3.4454,4.6118,-0.7973\H,0,-4.9952,4.561,3.4805\H,0,-6.3042,5
 .4785,2.7094\H,0,-4.6842,6.1991,2.7959\H,0,0.0146,4.7527,-1.4702\H,0,0
 .4212,5.2226,0.1971\H,0,-1.1798,5.5677,-0.4436\H,0,1.9682,-1.8381,-0.8
 934\H,0,3.2463,-1.1229,0.0818\H,0,1.6685,-0.583,2.6699\H,0,1.8708,-4.0
 28,0.0601\H,0,1.2734,-5.515,1.9282\H,0,1.988,-0.4294,5.1434\H,0,3.3278
 ,-3.7006,4.7133\H,0,3.1318,-4.5065,6.2371\H,0,4.095,-2.673,7.1784\H,0,
 3.9583,-1.7605,5.684\H,0,-0.0928,1.7025,6.9863\H,0,1.3145,1.5265,5.895
 2\H,0,1.0376,0.5128,8.7997\H,0,2.1651,1.732,8.2388\H,0,3.5404,0.145,7.
 1497\H,0,3.1598,-0.5852,8.6985\H,0,-1.1097,-1.9072,3.7408\H,0,-1.3756,
 -2.2275,5.4405\H,0,-0.1597,0.3566,4.2703\H,0,-1.629,0.1936,5.3089\H,0,
 0.74,-2.0782,8.5567\H,0,2.16,-3.0481,8.5784\H,0,1.1945,-4.6787,7.4207\
 H,0,-2.5337,-3.4978,9.9637\H,0,-2.979,-3.1105,8.2909\H,0,-2.7467,-4.82
 28,8.8019\H,0,0.9102,-6.3328,5.7012\H,0,0.6006,-6.5799,3.9888\H,0,2.23
 64,-6.147,4.5387\\Version=ES64L-G16RevB.01\State=1-A\HF=-2300.1952176\
 RMSD=3.818e-09\Dipole=0.7426901,0.5348224,-0.969756\Quadrupole=3.74461
 85,1.8195513,-5.5641698,-6.2026687,7.5949746,-1.8504372\PG=C01 [X(C45H
 56N4O5)]\\@


 GOD GAVE US TWO ENDS... ONE TO SIT ON...    
 AND THE OTHER TO THINK WITH...              
 YOUR SUCCESS DEPENDS UPON WHICH END YOU     
 USE THE MOST...                             
                                             
 IT'S A CASE OF HEADS YOU WIN TAILS YOU LOSE.
          SOURCE UNKNOWN(IT'S JUST AS WELL.) 
 Job cpu time:       0 days  0 hours 11 minutes 18.3 seconds.
 Elapsed time:       0 days  0 hours  1 minutes 53.2 seconds.
 File lengths (MBytes):  RWF=     67 Int=      0 D2E=      0 Chk=     10 Scr=      1
 Normal termination of Gaussian 16 at Thu May 30 09:57:10 2024.
