 Entering Gaussian System, Link 0=g16
 Input=2_pleiokomenine_2a_c_5.gjf
 Output=2_pleiokomenine_2a_c_5.log
 Initial command:
 /opt/gaussian/g16/l1.exe "/data/abenidd/Elvis/pleiokomenine_C/NMR_HF/2a/2_pleiokomenine_2a_c_5/Gau-28682.inp" -scrdir="/data/abenidd/Elvis/pleiokomenine_C/NMR_HF/2a/2_pleiokomenine_2a_c_5/"
 Entering Link 1 = /opt/gaussian/g16/l1.exe PID=     28684.
  
 Copyright (c) 1988-2017, Gaussian, Inc.  All Rights Reserved.
  
 This is part of the Gaussian(R) 16 program.  It is based on
 the Gaussian(R) 09 system (copyright 2009, Gaussian, Inc.),
 the Gaussian(R) 03 system (copyright 2003, Gaussian, Inc.),
 the Gaussian(R) 98 system (copyright 1998, Gaussian, Inc.),
 the Gaussian(R) 94 system (copyright 1995, Gaussian, Inc.),
 the Gaussian 92(TM) system (copyright 1992, Gaussian, Inc.),
 the Gaussian 90(TM) system (copyright 1990, Gaussian, Inc.),
 the Gaussian 88(TM) system (copyright 1988, Gaussian, Inc.),
 the Gaussian 86(TM) system (copyright 1986, Carnegie Mellon
 University), and the Gaussian 82(TM) system (copyright 1983,
 Carnegie Mellon University). Gaussian is a federally registered
 trademark of Gaussian, Inc.
  
 This software contains proprietary and confidential information,
 including trade secrets, belonging to Gaussian, Inc.
  
 This software is provided under written license and may be
 used, copied, transmitted, or stored only in accord with that
 written license.
  
 The following legend is applicable only to US Government
 contracts under FAR:
  
                    RESTRICTED RIGHTS LEGEND
  
 Use, reproduction and disclosure by the US Government is
 subject to restrictions as set forth in subparagraphs (a)
 and (c) of the Commercial Computer Software - Restricted
 Rights clause in FAR 52.227-19.
  
 Gaussian, Inc.
 340 Quinnipiac St., Bldg. 40, Wallingford CT 06492
  
  
 ---------------------------------------------------------------
 Warning -- This program may not be used in any manner that
 competes with the business of Gaussian, Inc. or will provide
 assistance to any competitor of Gaussian, Inc.  The licensee
 of this program is prohibited from giving any competitor of
 Gaussian, Inc. access to this program.  By using this program,
 the user acknowledges that Gaussian, Inc. is engaged in the
 business of creating and licensing software in the field of
 computational chemistry and represents and warrants to the
 licensee that it is not a competitor of Gaussian, Inc. and that
 it will not use this program in any manner prohibited above.
 ---------------------------------------------------------------
  

 Cite this work as:
 Gaussian 16, Revision B.01,
 M. J. Frisch, G. W. Trucks, H. B. Schlegel, G. E. Scuseria, 
 M. A. Robb, J. R. Cheeseman, G. Scalmani, V. Barone, 
 G. A. Petersson, H. Nakatsuji, X. Li, M. Caricato, A. V. Marenich, 
 J. Bloino, B. G. Janesko, R. Gomperts, B. Mennucci, H. P. Hratchian, 
 J. V. Ortiz, A. F. Izmaylov, J. L. Sonnenberg, D. Williams-Young, 
 F. Ding, F. Lipparini, F. Egidi, J. Goings, B. Peng, A. Petrone, 
 T. Henderson, D. Ranasinghe, V. G. Zakrzewski, J. Gao, N. Rega, 
 G. Zheng, W. Liang, M. Hada, M. Ehara, K. Toyota, R. Fukuda, 
 J. Hasegawa, M. Ishida, T. Nakajima, Y. Honda, O. Kitao, H. Nakai, 
 T. Vreven, K. Throssell, J. A. Montgomery, Jr., J. E. Peralta, 
 F. Ogliaro, M. J. Bearpark, J. J. Heyd, E. N. Brothers, K. N. Kudin, 
 V. N. Staroverov, T. A. Keith, R. Kobayashi, J. Normand, 
 K. Raghavachari, A. P. Rendell, J. C. Burant, S. S. Iyengar, 
 J. Tomasi, M. Cossi, J. M. Millam, M. Klene, C. Adamo, R. Cammi, 
 J. W. Ochterski, R. L. Martin, K. Morokuma, O. Farkas, 
 J. B. Foresman, and D. J. Fox, Gaussian, Inc., Wallingford CT, 2016.
 
 ******************************************
 Gaussian 16:  ES64L-G16RevB.01 20-Dec-2017
                30-May-2024 
 ******************************************
 %nprocshared=8
 Will use up to    8 processors via shared memory.
 ----------------------------------------------
 # nmr=giao hf/sto-3g pop=nbo geom=connectivity
 ----------------------------------------------
 1/38=1,57=2,172=1/1;
 2/12=2,17=6,18=5,40=1/2;
 3/6=3,11=9,25=1,30=1/1,2,3,8;
 4//1;
 5/5=2,38=5/2;
 8/6=1,10=90,11=11/1;
 10/13=100,45=16/2;
 6/7=2,8=2,9=2,10=2,28=1,40=1,64=1/1,7;
 99/9=1/99;
 -----------------
 Pleiokomenine_C_2
 -----------------
 Symbolic Z-matrix:
 Charge =  0 Multiplicity = 1
 C                     0.        0.        0. 
 C                     1.4015    0.        0. 
 C                     2.0816    1.2365    0. 
 C                     1.3865    2.4552   -0.039 
 C                     0.0036    2.4394   -0.086 
 C                    -0.6724    1.2105   -0.0482 
 N                    -0.8896    3.5398   -0.1849 
 C                    -2.1572    1.4663   -0.0152 
 C                    -2.1319    2.8942   -0.6881 
 C                    -3.1167    0.5545   -0.7949 
 C                    -2.024     2.717    -2.2661 
 C                    -3.2394    1.9682   -2.8272 
 C                    -4.0865    1.4367   -1.6544 
 N                    -3.7434   -0.2892    0.2286 
 C                    -4.9412   -0.9925   -0.2122 
 C                    -5.9411   -0.1471   -0.9998 
 C                    -5.2599    0.5834   -2.1564 
 C                    -2.5922    1.3145    1.4624 
 C                    -3.8817    0.5032    1.4413 
 C                    -4.6102    2.7127   -0.9098 
 C                    -3.4522    3.6571   -0.4835 
 C                    -3.6864    4.2734    0.8842 
 O                    -4.4946    3.8677    1.7104 
 O                    -2.9278    5.3941    1.0437 
 C                    -3.0663    6.0179    2.3199 
 C                    -0.3684    4.7511   -0.7993 
 C                     2.1818   -1.2978    0.0668 
 C                     1.6905   -2.3681   -0.8875 
 C                     0.7439   -3.3099   -0.4578 
 C                     2.1103   -2.364    -2.2359 
 C                     1.6088   -3.2906   -3.1595 
 C                     0.6736   -4.2137   -2.7327 
 C                     0.231    -4.1961   -1.39 
 N                     0.0518   -5.2521   -3.477 
 C                    -0.9155   -5.1766   -1.2771 
 C                    -0.4206   -6.1535   -2.4014 
 C                    -1.1734   -6.0082   -0.0341 
 C                     0.8617   -6.9753   -1.8668 
 C                     0.5881   -7.6475   -0.5179 
 C                    -0.9073   -7.5128   -0.1882 
 N                    -2.6247   -5.7543    0.3428 
 C                    -2.8154   -6.2034    1.7534 
 C                    -2.5694   -7.7248    1.8152 
 C                    -1.246    -8.189     1.1629 
 C                    -2.1782   -4.2687   -1.3805 
 C                    -2.7723   -4.3089    0.0386 
 C                    -1.649    -8.1281   -1.4242 
 C                    -1.4291   -7.2779   -2.7307 
 C                    -2.7121   -6.8672   -3.4385 
 O                    -2.8592   -5.862    -4.1216 
 O                    -3.6439   -7.8627   -3.3533 
 C                    -4.9009   -7.5319   -3.9405 
 C                     0.7187   -5.7527   -4.662 
 O                    -3.5585   -6.4011   -0.4295 
 H                    -0.5713   -0.9214    0.042 
 H                     3.169     1.2591    0.0293 
 H                     1.9395    3.3873   -0.0398 
 H                    -2.562    -0.1152   -1.4665 
 H                    -1.9515    3.6945   -2.7601 
 H                    -1.112     2.1791   -2.5535 
 H                    -3.8325    2.6388   -3.4617 
 H                    -2.9008    1.1513   -3.4766 
 H                    -4.619    -1.8208   -0.8562 
 H                    -5.4425   -1.4647    0.6414 
 H                    -6.7277   -0.798    -1.3993 
 H                    -6.439     0.5661   -0.3341 
 H                    -4.8981   -0.1597   -2.879 
 H                    -5.9934    1.2027   -2.6862 
 H                    -2.6898    2.2546    2.0036 
 H                    -1.855     0.7331    2.0354 
 H                    -3.9516   -0.1368    2.3275 
 H                    -4.7608    1.1494    1.4376 
 H                    -5.2529    2.4462   -0.0706 
 H                    -5.2695    3.2752   -1.5866 
 H                    -3.4835    4.5155   -1.1722 
 H                    -2.3792    6.8677    2.3577 
 H                    -2.7983    5.3213    3.1206 
 H                    -4.0865    6.3905    2.4537 
 H                     0.1116    4.5504   -1.7638 
 H                     0.3612    5.231    -0.1382 
 H                    -1.1703    5.476    -0.9692 
 H                     2.1465   -1.6724    1.098 
 H                     3.243    -1.1124   -0.1453 
 H                     0.3752   -3.2936    0.5623 
 H                     2.8227   -1.6157   -2.5783 
 H                     1.9437   -3.2614   -4.1897 
 H                    -0.5832   -5.603     0.8014 
 H                     1.7623   -6.3566   -1.7709 
 H                     1.1348   -7.7425   -2.6046 
 H                     0.8952   -8.6999   -0.5546 
 H                     1.2017   -7.1742    0.2594 
 H                    -3.8428   -5.9491    2.0345 
 H                    -2.1141   -5.644     2.381 
 H                    -3.3969   -8.244     1.3155 
 H                    -2.5926   -8.0519    2.8611 
 H                    -1.258    -9.2797    1.0493 
 H                    -0.4426   -7.9664    1.8785 
 H                    -1.9889   -3.2302   -1.6769 
 H                    -2.9109   -4.6608   -2.0848 
 H                    -3.8315   -4.0414    0.0842 
 H                    -2.1877   -3.7444    0.7718 
 H                    -2.7018   -8.3213   -1.2095 
 H                    -1.2381   -9.1321   -1.6071 
 H                    -0.9615   -7.9499   -3.4666 
 H                    -5.6001   -8.3443   -3.7239 
 H                    -5.3011   -6.6091   -3.5083 
 H                    -4.8009   -7.4412   -5.0264 
 H                     0.7813   -4.9733   -5.4289 
 H                     0.1518   -6.5807   -5.0988 
 H                     1.7306   -6.11     -4.4427 
 
 Stoichiometry    C45H56N4O5
 Framework group  C1[X(C45H56N4O5)]
 Deg. of freedom   324
 Full point group                 C1      NOp   1
 Largest Abelian subgroup         C1      NOp   1
 Largest concise Abelian subgroup C1      NOp   1
                         Standard orientation:                         
 ---------------------------------------------------------------------
 Center     Atomic      Atomic             Coordinates (Angstroms)
 Number     Number       Type             X           Y           Z
 ---------------------------------------------------------------------
      1          6           0       -1.876747    1.889770    0.680236
      2          6           0       -1.731308    3.278012    0.806067
      3          6           0       -2.872857    4.096500    0.670378
      4          6           0       -4.133110    3.553501    0.375709
      5          6           0       -4.253228    2.185193    0.207854
      6          6           0       -3.125059    1.368953    0.379865
      7          7           0       -5.407999    1.436394   -0.144669
      8          6           0       -3.535447   -0.074201    0.238297
      9          6           0       -4.819441    0.166211   -0.648210
     10          6           0       -2.610102   -1.075667   -0.469342
     11          6           0       -4.369230    0.365165   -2.161767
     12          6           0       -3.666980   -0.886319   -2.703397
     13          6           0       -3.431045   -1.871513   -1.541821
     14          7           0       -2.020148   -1.868435    0.614912
     15          6           0       -1.380900   -3.105759    0.185897
     16          6           0       -2.180981   -3.940871   -0.812739
     17          6           0       -2.631933   -3.097859   -2.004947
     18          6           0       -3.680208   -0.628514    1.676125
     19          6           0       -3.015169   -1.999328    1.668698
     20          6           0       -4.861427   -2.294050   -1.059808
     21          6           0       -5.738714   -1.066876   -0.686986
     22          6           0       -6.597118   -1.324470    0.538602
     23          8           0       -6.422193   -2.231615    1.342888
     24          8           0       -7.643820   -0.453191    0.585203
     25          6           0       -8.484262   -0.608570    1.728230
     26          6           0       -6.438037    2.138464   -0.894673
     27          6           0       -0.389347    3.894154    1.148303
     28          6           0        0.769316    3.350379    0.336259
     29          6           0        1.522074    2.271704    0.823596
     30          6           0        1.035565    3.863100   -0.952407
     31          6           0        2.047141    3.323857   -1.758048
     32          6           0        2.783238    2.258872   -1.275515
     33          6           0        2.494308    1.726516    0.002047
     34          7           0        3.861780    1.574552   -1.897886
     35          6           0        3.317522    0.467951    0.166126
     36          6           0        4.515550    0.924141   -0.739374
     37          6           0        3.896983    0.026216    1.497372
     38          6           0        5.364337    2.059836    0.032120
     39          6           0        5.768106    1.613647    1.440710
     40          6           0        5.425446    0.124596    1.609166
     41          7           0        3.434113   -1.408566    1.697226
     42          6           0        3.617409   -1.750921    3.138422
     43          6           0        5.123956   -1.689856    3.463351
     44          6           0        5.826010   -0.386703    3.014712
     45          6           0        2.313869   -0.669076   -0.193366
     46          6           0        2.053033   -1.363731    1.154905
     47          6           0        6.159455   -0.593778    0.425283
     48          6           0        5.568494   -0.182966   -0.974765
     49          6           0        5.151750   -1.355119   -1.851193
     50          8           0        4.265948   -1.334254   -2.695948
     51          8           0        6.016606   -2.400791   -1.692685
     52          6           0        5.660608   -3.565171   -2.435495
     53          6           0        4.620951    2.261241   -2.923410
     54          8           0        4.101105   -2.354067    0.957004
     55          1           0       -1.039857    1.212955    0.816847
     56          1           0       -2.787095    5.174166    0.793219
     57          1           0       -4.989315    4.210496    0.276259
     58          1           0       -1.783125   -0.556631   -0.973274
     59          1           0       -5.236882    0.586787   -2.796481
     60          1           0       -3.698972    1.226087   -2.276858
     61          1           0       -4.279232   -1.349900   -3.487173
     62          1           0       -2.721863   -0.600167   -3.181483
     63          1           0       -0.427218   -2.837572   -0.286538
     64          1           0       -1.113545   -3.718654    1.055257
     65          1           0       -1.557372   -4.767700   -1.172568
     66          1           0       -3.043714   -4.398128   -0.316430
     67          1           0       -1.744446   -2.774849   -2.564661
     68          1           0       -3.226068   -3.714006   -2.690228
     69          1           0       -4.702896   -0.653781    2.049867
     70          1           0       -3.130104   -0.007353    2.398180
     71          1           0       -2.544034   -2.206889    2.635542
     72          1           0       -3.739236   -2.794164    1.483310
     73          1           0       -4.807969   -3.021887   -0.250031
     74          1           0       -5.367467   -2.832841   -1.873914
     75          1           0       -6.467651   -0.948099   -1.503491
     76          1           0       -9.252363    0.168858    1.691865
     77          1           0       -7.908203   -0.481943    2.650357
     78          1           0       -8.977883   -1.585046    1.708894
     79          1           0       -6.029322    2.659379   -1.767908
     80          1           0       -6.943913    2.870100   -0.255556
     81          1           0       -7.203298    1.441199   -1.249055
     82          1           0       -0.199169    3.741582    2.218583
     83          1           0       -0.425308    4.982195    1.005550
     84          1           0        1.296326    1.835463    1.790830
     85          1           0        0.433511    4.680885   -1.344150
     86          1           0        2.226476    3.732669   -2.745487
     87          1           0        3.420546    0.598552    2.307325
     88          1           0        4.835168    3.017523    0.108817
     89          1           0        6.268800    2.293250   -0.546667
     90          1           0        6.837800    1.797207    1.599656
     91          1           0        5.237125    2.221299    2.184707
     92          1           0        3.214244   -2.758917    3.282084
     93          1           0        3.036295   -1.035611    3.729413
     94          1           0        5.631063   -2.534609    2.980381
     95          1           0        5.266355   -1.825930    4.541612
     96          1           0        6.913064   -0.518212    3.075497
     97          1           0        5.570857    0.384002    3.754979
     98          1           0        1.365318   -0.338743   -0.633025
     99          1           0        2.740618   -1.390411   -0.889205
    100          1           0        1.673223   -2.384842    1.062076
    101          1           0        1.437055   -0.770971    1.838429
    102          1           0        6.203497   -1.674598    0.572588
    103          1           0        7.217055   -0.291278    0.442108
    104          1           0        6.399498    0.254123   -1.549369
    105          1           0        6.348019   -4.368393   -2.156049
    106          1           0        4.641803   -3.884407   -2.193335
    107          1           0        5.764644   -3.377851   -3.508571
    108          1           0        3.992349    2.469367   -3.795798
    109          1           0        5.447238    1.633958   -3.272006
    110          1           0        5.039346    3.206041   -2.560097
 ---------------------------------------------------------------------
 Rotational constants (GHZ):           0.0988678           0.0314236           0.0286292
 Standard basis: STO-3G (5D, 7F)
 There are   326 symmetry adapted cartesian basis functions of A   symmetry.
 There are   326 symmetry adapted basis functions of A   symmetry.
   326 basis functions,   978 primitive gaussians,   326 cartesian basis functions
   197 alpha electrons      197 beta electrons
       nuclear repulsion energy      8104.4180143810 Hartrees.
 NAtoms=  110 NActive=  110 NUniq=  110 SFac= 1.00D+00 NAtFMM=   60 NAOKFM=T Big=T
 Integral buffers will be    131072 words long.
 Raffenetti 1 integral format.
 Two-electron integral symmetry is turned on.
 One-electron integrals computed using PRISM.
 NBasis=   326 RedAO= T EigKep=  1.72D-01  NBF=   326
 NBsUse=   326 1.00D-06 EigRej= -1.00D+00 NBFU=   326
 ExpMin= 1.69D-01 ExpMax= 1.31D+02 ExpMxC= 1.31D+02 IAcc=3 IRadAn=         5 AccDes= 0.00D+00
 Harris functional with IExCor=  205 and IRadAn=       5 diagonalized for initial guess.
 HarFok:  IExCor=  205 AccDes= 0.00D+00 IRadAn=         5 IDoV= 1 UseB2=F ITyADJ=14
 ICtDFT=  3500011 ScaDFX=  1.000000  1.000000  1.000000  1.000000
 FoFCou: FMM=F IPFlag=           0 FMFlag=      100000 FMFlg1=        2001
         NFxFlg=           0 DoJE=T BraDBF=F KetDBF=T FulRan=T
         wScrn=  0.000000 ICntrl=       500 IOpCl=  0 I1Cent=   200000004 NGrid=           0
         NMat0=    1 NMatS0=      1 NMatT0=    0 NMatD0=    1 NMtDS0=    0 NMtDT0=    0
 Petite list used in FoFCou.
 Requested convergence on RMS density matrix=1.00D-08 within 128 cycles.
 Requested convergence on MAX density matrix=1.00D-06.
 Requested convergence on             energy=1.00D-06.
 No special actions if energy rises.
 Integral accuracy reduced to 1.0D-05 until final iterations.
 Initial convergence to 1.0D-05 achieved.  Increase integral accuracy.
 SCF Done:  E(RHF) =  -2300.20248262     A.U. after   16 cycles
            NFock= 16  Conv=0.39D-08     -V/T= 2.0093
 Range of M.O.s used for correlation:     1   326
 NBasis=   326 NAE=   197 NBE=   197 NFC=     0 NFV=     0
 NROrb=    326 NOA=   197 NOB=   197 NVA=   129 NVB=   129
          Differentiating once with respect to magnetic field using GIAOs.
          Electric field/nuclear overlap derivatives assumed to be zero.
 FoFCou: FMM=F IPFlag=           0 FMFlag=      100000 FMFlg1=        2001
         NFxFlg=           0 DoJE=F BraDBF=F KetDBF=T FulRan=T
         wScrn=  0.000000 ICntrl=      6100 IOpCl=  0 I1Cent=           7 NGrid=         110
         NMat0=    1 NMatS0=      1 NMatT0=    0 NMatD0=    1 NMtDS0=    0 NMtDT0=    0
 Symmetry not used in FoFCou.
 FoFJK:  IHMeth= 1 ICntrl=    6127 DoSepK=F KAlg= 0 I1Cent=           0 FoldK=F
 IRaf=         1 NMat=       1 IRICut=       1 DoRegI=T DoRafI=F ISym2E= 0 IDoP0=0 IntGTp=1.
          There are     3 degrees of freedom in the 1st order CPHF.  IDoFFX=0 NUNeed=     3.
      3 vectors produced by pass  0 Test12= 8.47D-13 3.33D-08 XBig12= 1.86D+02 2.41D+00.
 AX will form     3 AO Fock derivatives at one time.
      3 vectors produced by pass  1 Test12= 8.47D-13 3.33D-08 XBig12= 8.33D-01 3.05D-01.
      3 vectors produced by pass  2 Test12= 8.47D-13 3.33D-08 XBig12= 2.00D-02 3.60D-02.
      3 vectors produced by pass  3 Test12= 8.47D-13 3.33D-08 XBig12= 4.05D-04 7.97D-03.
      3 vectors produced by pass  4 Test12= 8.47D-13 3.33D-08 XBig12= 1.51D-05 9.85D-04.
      3 vectors produced by pass  5 Test12= 8.47D-13 3.33D-08 XBig12= 2.63D-07 7.54D-05.
      3 vectors produced by pass  6 Test12= 8.47D-13 3.33D-08 XBig12= 1.03D-08 1.80D-05.
      3 vectors produced by pass  7 Test12= 8.47D-13 3.33D-08 XBig12= 3.56D-10 2.58D-06.
      3 vectors produced by pass  8 Test12= 8.47D-13 3.33D-08 XBig12= 5.89D-12 3.56D-07.
      2 vectors produced by pass  9 Test12= 8.47D-13 3.33D-08 XBig12= 1.06D-13 6.27D-08.
 InvSVY:  IOpt=1 It=  1 EMax= 3.55D-15
 Solved reduced A of dimension    29 with     3 vectors.
 Calculating GIAO nuclear magnetic shielding tensors.
 SCF GIAO Magnetic shielding tensor (ppm):
      1  C    Isotropic =   125.2163   Anisotropy =   152.1352
   XX=    75.8201   YX=    37.9264   ZX=   -29.3164
   XY=    43.5985   YY=    80.9653   ZY=    -1.4976
   XZ=   -35.9757   YZ=    -0.4072   ZZ=   218.8636
   Eigenvalues:    34.5397   114.4695   226.6398
      2  C    Isotropic =   120.5995   Anisotropy =   156.2146
   XX=    61.1071   YX=   -22.3288   ZX=   -35.5293
   XY=   -15.0370   YY=    85.9781   ZY=   -14.3781
   XZ=   -42.3257   YZ=   -15.0088   ZZ=   214.7132
   Eigenvalues:    41.2579    95.7980   224.7425
      3  C    Isotropic =   119.2330   Anisotropy =   148.9962
   XX=   114.8105   YX=    -5.4980   ZX=   -20.7865
   XY=    -6.6955   YY=    31.7252   ZY=   -19.5272
   XZ=   -26.3289   YZ=   -22.3607   ZZ=   211.1633
   Eigenvalues:    28.3972   110.7381   218.5638
      4  C    Isotropic =   133.6706   Anisotropy =   142.0775
   XX=    83.6865   YX=    38.1239   ZX=   -24.8100
   XY=    30.5557   YY=    94.1972   ZY=    -7.1636
   XZ=   -26.0530   YZ=    -0.7397   ZZ=   223.1280
   Eigenvalues:    52.5102   120.1126   228.3889
      5  C    Isotropic =   109.2292   Anisotropy =   126.6610
   XX=    55.4674   YX=   -20.3249   ZX=   -34.2857
   XY=    -7.0334   YY=    86.5641   ZY=   -12.3754
   XZ=   -31.1955   YZ=    -4.5410   ZZ=   185.6561
   Eigenvalues:    42.4021    91.6156   193.6698
      6  C    Isotropic =   117.7134   Anisotropy =   138.7782
   XX=    95.6465   YX=     5.2019   ZX=   -20.6274
   XY=    -1.3602   YY=    51.1563   ZY=   -13.9283
   XZ=   -12.5844   YZ=   -16.2845   ZZ=   206.3375
   Eigenvalues:    49.6972    93.2109   210.2322
      7  N    Isotropic =   273.6929   Anisotropy =    81.6429
   XX=   277.9145   YX=    22.4000   ZX=    21.5804
   XY=    39.8942   YY=   279.7794   ZY=    34.7021
   XZ=    15.0061   YZ=    24.7027   ZZ=   263.3846
   Eigenvalues:   239.7164   253.2407   328.1215
      8  C    Isotropic =   196.2913   Anisotropy =    14.4505
   XX=   202.0639   YX=    -4.3083   ZX=    -4.1626
   XY=    -8.7139   YY=   194.9178   ZY=    -1.5985
   XZ=     0.0514   YZ=    -6.5213   ZZ=   191.8923
   Eigenvalues:   186.9163   196.0327   205.9250
      9  C    Isotropic =   181.0911   Anisotropy =    45.2222
   XX=   187.4938   YX=   -19.1798   ZX=    -2.3082
   XY=   -13.2899   YY=   197.5407   ZY=     7.2262
   XZ=     8.6314   YZ=    20.4753   ZZ=   158.2389
   Eigenvalues:   151.8526   180.1816   211.2393
     10  C    Isotropic =   190.1874   Anisotropy =    28.9444
   XX=   181.1734   YX=   -13.3148   ZX=     8.3906
   XY=    -9.3550   YY=   195.6149   ZY=    -8.0789
   XZ=     5.1986   YZ=    -9.4031   ZZ=   193.7739
   Eigenvalues:   174.7445   186.3340   209.4837
     11  C    Isotropic =   213.8909   Anisotropy =    18.6109
   XX=   207.8294   YX=     0.8602   ZX=    -7.1265
   XY=    -4.9103   YY=   209.3300   ZY=    -0.2702
   XZ=    -4.2128   YZ=    -2.6964   ZZ=   224.5134
   Eigenvalues:   204.8271   210.5475   226.2982
     12  C    Isotropic =   213.0399   Anisotropy =    20.5001
   XX=   207.4431   YX=    -5.2977   ZX=     2.0489
   XY=    -4.4093   YY=   216.4709   ZY=   -10.8431
   XZ=     1.3425   YZ=    -8.5323   ZZ=   215.2056
   Eigenvalues:   204.1838   208.2292   226.7066
     13  C    Isotropic =   213.7605   Anisotropy =     7.8514
   XX=   214.7008   YX=     1.1873   ZX=    -6.2346
   XY=    -0.1551   YY=   212.9431   ZY=     1.8008
   XZ=    -2.6093   YZ=     3.6495   ZZ=   213.6376
   Eigenvalues:   208.4080   213.8786   218.9947
     14  N    Isotropic =   302.2002   Anisotropy =    52.5296
   XX=   294.3820   YX=   -45.5315   ZX=   -26.0554
   XY=   -28.1915   YY=   295.4633   ZY=   -28.0053
   XZ=   -15.4101   YZ=   -28.1396   ZZ=   316.7552
   Eigenvalues:   242.0749   327.3057   337.2199
     15  C    Isotropic =   205.3325   Anisotropy =    32.1902
   XX=   207.7677   YX=   -11.2880   ZX=     0.2488
   XY=   -15.1060   YY=   214.4811   ZY=    12.0368
   XZ=     1.5218   YZ=     9.6068   ZZ=   193.7488
   Eigenvalues:   186.9502   202.2548   226.7926
     16  C    Isotropic =   224.4252   Anisotropy =     8.7058
   XX=   224.7735   YX=    -4.6045   ZX=     5.1239
   XY=    -0.0318   YY=   224.1190   ZY=    -1.5181
   XZ=     4.9349   YZ=     0.8130   ZZ=   224.3830
   Eigenvalues:   219.1488   223.8977   230.2290
     17  C    Isotropic =   215.4736   Anisotropy =    19.0775
   XX=   216.1158   YX=    -7.0740   ZX=     0.4385
   XY=   -11.4546   YY=   220.8119   ZY=     0.9060
   XZ=    -2.7227   YZ=     1.8466   ZZ=   209.4933
   Eigenvalues:   208.8992   209.3297   228.1919
     18  C    Isotropic =   210.7066   Anisotropy =    36.3515
   XX=   190.4131   YX=    -1.8219   ZX=    -2.0215
   XY=    -8.2530   YY=   219.1434   ZY=   -11.9934
   XZ=     0.6694   YZ=   -15.6060   ZZ=   222.5633
   Eigenvalues:   189.2311   207.9478   234.9409
     19  C    Isotropic =   199.9588   Anisotropy =    42.6203
   XX=   200.0862   YX=   -10.0436   ZX=   -26.2811
   XY=   -13.0311   YY=   191.5018   ZY=    -4.8315
   XZ=   -20.1698   YZ=    -2.6945   ZZ=   208.2885
   Eigenvalues:   173.4372   198.0669   228.3723
     20  C    Isotropic =   212.1906   Anisotropy =    22.0518
   XX=   222.6725   YX=     1.2724   ZX=    -9.0524
   XY=    -0.1986   YY=   209.4823   ZY=     4.9498
   XZ=    -9.9337   YZ=     6.2644   ZZ=   204.4169
   Eigenvalues:   197.8707   211.8092   226.8918
     21  C    Isotropic =   209.1146   Anisotropy =    10.5495
   XX=   209.1286   YX=     2.9050   ZX=    -4.4722
   XY=     9.3167   YY=   208.6932   ZY=     0.0180
   XZ=    -6.8387   YZ=     5.6269   ZZ=   209.5219
   Eigenvalues:   199.2446   211.9516   216.1475
     22  C    Isotropic =    96.4017   Anisotropy =    98.6666
   XX=    33.2978   YX=    42.1314   ZX=    79.7953
   XY=    53.4370   YY=   144.0732   ZY=   -35.7189
   XZ=    65.0555   YZ=   -21.8637   ZZ=   111.8341
   Eigenvalues:   -27.9152   154.9409   162.1794
     23  O    Isotropic =  -134.6637   Anisotropy =   887.5746
   XX=   -70.9615   YX=   294.2859   ZX=   205.7858
   XY=   308.7168   YY=  -177.1894   ZY=   388.2962
   XZ=   188.9090   YZ=   384.5752   ZZ=  -155.8404
   Eigenvalues:  -571.0311  -290.0128   457.0526
     24  O    Isotropic =   283.8810   Anisotropy =   140.0909
   XX=   329.8971   YX=    -3.9783   ZX=    41.6477
   XY=   -88.1552   YY=   332.2476   ZY=   123.1808
   XZ=   119.6475   YZ=    26.7556   ZZ=   189.4985
   Eigenvalues:   117.2381   357.1300   377.2750
     25  C    Isotropic =   197.3909   Anisotropy =    57.6566
   XX=   202.9391   YX=     2.7411   ZX=   -28.1569
   XY=     2.9750   YY=   177.8992   ZY=    -2.3011
   XZ=   -28.0847   YZ=    -3.0094   ZZ=   211.3345
   Eigenvalues:   177.4873   178.8567   235.8287
     26  C    Isotropic =   209.9183   Anisotropy =    41.7584
   XX=   221.2028   YX=   -13.5521   ZX=    12.7530
   XY=   -15.4694   YY=   204.7419   ZY=   -10.8688
   XZ=    12.0590   YZ=   -12.1167   ZZ=   203.8101
   Eigenvalues:   192.6788   199.3188   237.7572
     27  C    Isotropic =   206.6652   Anisotropy =    18.8764
   XX=   217.9158   YX=    -2.6724   ZX=    -6.4801
   XY=    -0.9859   YY=   203.6383   ZY=     6.0525
   XZ=    -1.3197   YZ=     5.4508   ZZ=   198.4416
   Eigenvalues:   194.4955   206.2507   219.2495
     28  C    Isotropic =   119.4127   Anisotropy =   161.4430
   XX=   113.2688   YX=    74.4901   ZX=    59.4513
   XY=    67.1965   YY=   143.2260   ZY=    31.7026
   XZ=    52.8154   YZ=    22.8929   ZZ=   101.7434
   Eigenvalues:    39.4171    91.7797   227.0414
     29  C    Isotropic =   126.7530   Anisotropy =   147.5414
   XX=   164.6025   YX=    35.6990   ZX=    50.4231
   XY=    32.6878   YY=   143.7160   ZY=    68.7336
   XZ=    39.1683   YZ=    53.2660   ZZ=    71.9405
   Eigenvalues:    32.8173   122.3278   225.1139
     30  C    Isotropic =   118.9895   Anisotropy =   156.3472
   XX=   124.6009   YX=    89.2608   ZX=    17.5588
   XY=    78.6941   YY=   116.5316   ZY=    48.0225
   XZ=     7.2267   YZ=    52.9059   ZZ=   115.8360
   Eigenvalues:    26.5251   107.2224   223.2210
     31  C    Isotropic =   133.8812   Anisotropy =   144.4634
   XX=   168.5712   YX=    40.2683   ZX=    40.8129
   XY=    45.2149   YY=   153.9669   ZY=    48.0722
   XZ=    35.4035   YZ=    53.1931   ZZ=    79.1055
   Eigenvalues:    51.2334   120.2200   230.1901
     32  C    Isotropic =   108.3063   Anisotropy =   131.3298
   XX=   118.4664   YX=    48.0785   ZX=    49.3814
   XY=    59.4918   YY=   117.8388   ZY=    22.9527
   XZ=    58.6917   YZ=     8.2483   ZZ=    88.6138
   Eigenvalues:    40.0770    88.9825   195.8595
     33  C    Isotropic =   117.2510   Anisotropy =   143.7398
   XX=   144.8529   YX=    66.0229   ZX=    27.8585
   XY=    68.7453   YY=   107.1548   ZY=    33.7546
   XZ=    22.3841   YZ=    44.6469   ZZ=    99.7453
   Eigenvalues:    49.1766    89.4987   213.0775
     34  N    Isotropic =   273.3698   Anisotropy =    85.6067
   XX=   313.8127   YX=   -24.7314   ZX=   -10.0874
   XY=   -41.1918   YY=   260.3178   ZY=    13.5671
   XZ=    -1.1593   YZ=     3.8871   ZZ=   245.9789
   Eigenvalues:   239.3989   250.2695   330.4409
     35  C    Isotropic =   200.4550   Anisotropy =    12.5581
   XX=   193.7166   YX=     3.6851   ZX=    -3.9574
   XY=     3.4700   YY=   199.2463   ZY=    -4.4034
   XZ=    -1.0917   YZ=     5.2630   ZZ=   208.4021
   Eigenvalues:   191.6000   200.9380   208.8271
     36  C    Isotropic =   179.1846   Anisotropy =    39.4476
   XX=   173.6386   YX=   -19.6571   ZX=    -4.6926
   XY=    -4.7754   YY=   166.7904   ZY=   -14.0011
   XZ=     4.5672   YZ=   -19.7647   ZZ=   197.1250
   Eigenvalues:   153.0475   179.0234   205.4830
     37  C    Isotropic =   183.6759   Anisotropy =    43.1741
   XX=   175.4690   YX=    15.9630   ZX=     5.6877
   XY=    21.6805   YY=   202.0786   ZY=    -9.0379
   XZ=    10.5773   YZ=   -10.1664   ZZ=   173.4802
   Eigenvalues:   157.1913   181.3778   212.4586
     38  C    Isotropic =   210.9361   Anisotropy =    24.1763
   XX=   211.1798   YX=     5.8625   ZX=     9.9587
   XY=     9.6946   YY=   214.2076   ZY=     2.0157
   XZ=     9.8230   YZ=    10.3536   ZZ=   207.4210
   Eigenvalues:   199.2288   206.5260   227.0536
     39  C    Isotropic =   212.7056   Anisotropy =    20.1048
   XX=   203.3116   YX=     3.2659   ZX=    -0.9477
   XY=     2.7994   YY=   224.5541   ZY=    -2.4580
   XZ=     2.2358   YZ=    -6.2539   ZZ=   210.2510
   Eigenvalues:   202.6601   209.3478   226.1088
     40  C    Isotropic =   211.3992   Anisotropy =    11.8253
   XX=   211.3710   YX=    -2.7639   ZX=     5.9528
   XY=    -2.0994   YY=   208.7425   ZY=    -1.7382
   XZ=     5.6024   YZ=    -0.9045   ZZ=   214.0843
   Eigenvalues:   206.2081   208.7068   219.2828
     41  N    Isotropic =   235.0137   Anisotropy =    22.9019
   XX=   239.7045   YX=    -6.5171   ZX=    -9.2005
   XY=    -0.3322   YY=   244.8221   ZY=    -9.9500
   XZ=   -21.3188   YZ=    11.6837   ZZ=   220.5146
   Eigenvalues:   212.0592   242.7003   250.2817
     42  C    Isotropic =   193.6669   Anisotropy =    50.3304
   XX=   181.5901   YX=     0.7247   ZX=     8.5570
   XY=    -0.1697   YY=   176.3562   ZY=   -14.8638
   XZ=     4.1512   YZ=   -11.0516   ZZ=   223.0542
   Eigenvalues:   172.5853   181.1948   227.2205
     43  C    Isotropic =   219.1550   Anisotropy =    11.3272
   XX=   223.8462   YX=     3.4825   ZX=     4.4936
   XY=     5.0423   YY=   218.0292   ZY=    -6.5073
   XZ=     6.6720   YZ=    -8.7014   ZZ=   215.5897
   Eigenvalues:   206.3025   224.4561   226.7065
     44  C    Isotropic =   214.6833   Anisotropy =    22.5726
   XX=   206.7067   YX=     0.7778   ZX=     8.5463
   XY=     1.1904   YY=   213.7212   ZY=    -8.8341
   XZ=     4.9452   YZ=    -7.9913   ZZ=   223.6218
   Eigenvalues:   202.7285   211.5896   229.7317
     45  C    Isotropic =   206.7976   Anisotropy =    36.9023
   XX=   207.2873   YX=    20.5777   ZX=     6.8039
   XY=    19.8309   YY=   214.1901   ZY=   -10.7043
   XZ=    13.4961   YZ=   -11.9186   ZZ=   198.9155
   Eigenvalues:   178.8839   210.1098   231.3992
     46  C    Isotropic =   190.4352   Anisotropy =    57.3772
   XX=   219.2535   YX=     9.0560   ZX=    19.5210
   XY=     0.3198   YY=   174.5543   ZY=    -8.1568
   XZ=    24.4230   YZ=   -15.2054   ZZ=   177.4978
   Eigenvalues:   158.3153   184.3036   228.6867
     47  C    Isotropic =   211.6352   Anisotropy =    25.0474
   XX=   206.2553   YX=    -7.2935   ZX=    -0.2363
   XY=    -6.1782   YY=   202.5216   ZY=     6.8746
   XZ=     0.5303   YZ=     7.6864   ZZ=   226.1287
   Eigenvalues:   196.1933   210.3788   228.3334
     48  C    Isotropic =   207.1664   Anisotropy =    16.3857
   XX=   201.7311   YX=    -2.5214   ZX=    -0.4539
   XY=    -3.3399   YY=   215.0179   ZY=     7.4890
   XZ=    -2.4365   YZ=     3.5958   ZZ=   204.7502
   Eigenvalues:   201.0624   202.3466   218.0902
     49  C    Isotropic =    98.1431   Anisotropy =    96.1994
   XX=   146.6872   YX=    51.9095   ZX=    18.3340
   XY=    32.8471   YY=    -1.1415   ZY=   -54.0148
   XZ=     8.0876   YZ=   -38.3961   ZZ=   148.8835
   Eigenvalues:   -25.6561   157.8093   162.2760
     50  O    Isotropic =  -132.0353   Anisotropy =   878.4582
   XX=  -159.0653   YX=   193.3959   ZX=  -457.5865
   XY=   180.5240   YY=  -180.1806   ZY=  -180.7863
   XZ=  -454.3658   YZ=  -169.1991   ZZ=   -56.8602
   Eigenvalues:  -568.4201  -281.2894   453.6035
     51  O    Isotropic =   285.7846   Anisotropy =   142.9093
   XX=   326.7344   YX=  -121.0144   ZX=   -84.7785
   XY=   -24.1199   YY=   283.7056   ZY=   -44.9251
   XZ=   -53.1308   YZ=  -148.0816   ZZ=   246.9139
   Eigenvalues:   119.3121   356.9843   381.0574
     52  C    Isotropic =   197.4464   Anisotropy =    56.3261
   XX=   181.4137   YX=     7.6888   ZX=     3.8880
   XY=     8.4091   YY=   218.6650   ZY=    24.8230
   XZ=     2.9980   YZ=    24.8561   ZZ=   192.2605
   Eigenvalues:   176.8865   180.4555   234.9972
     53  C    Isotropic =   211.0879   Anisotropy =    42.1666
   XX=   206.3236   YX=    11.2390   ZX=   -15.5944
   XY=    10.0116   YY=   205.7568   ZY=   -13.0793
   XZ=   -16.1199   YZ=   -11.9465   ZZ=   221.1832
   Eigenvalues:   194.8498   199.2148   239.1990
     54  O    Isotropic =    74.4240   Anisotropy =   405.7696
   XX=    19.3448   YX=  -135.2005   ZX=   -89.0053
   XY=  -113.5528   YY=   160.9585   ZY=   150.2367
   XZ=   -85.8685   YZ=   172.8545   ZZ=    42.9686
   Eigenvalues:   -70.0233   -51.6418   344.9370
     55  H    Isotropic =    26.4190   Anisotropy =    17.1253
   XX=    33.2843   YX=     5.2730   ZX=     0.3437
   XY=     6.8788   YY=    29.1131   ZY=     0.2296
   XZ=     3.0061   YZ=     2.3584   ZZ=    16.8596
   Eigenvalues:    16.6456    24.7756    37.8359
     56  H    Isotropic =    25.7259   Anisotropy =     6.6152
   XX=    29.5555   YX=    -1.5107   ZX=     1.1256
   XY=    -0.8897   YY=    27.0686   ZY=     0.6315
   XZ=     1.3597   YZ=     0.4780   ZZ=    20.5536
   Eigenvalues:    20.3089    26.7327    30.1360
     57  H    Isotropic =    26.5698   Anisotropy =     7.9018
   XX=    28.0237   YX=     0.6557   ZX=     1.6686
   XY=     0.5641   YY=    31.2045   ZY=     2.0665
   XZ=     1.3464   YZ=     2.2530   ZZ=    20.4812
   Eigenvalues:    19.8335    28.0381    31.8377
     58  H    Isotropic =    32.0321   Anisotropy =    12.6762
   XX=    37.7833   YX=     3.9004   ZX=    -0.7113
   XY=     5.5728   YY=    31.2742   ZY=    -2.0384
   XZ=    -2.0956   YZ=     0.2051   ZZ=    27.0388
   Eigenvalues:    26.8192    28.7943    40.4829
     59  H    Isotropic =    32.3062   Anisotropy =    13.7664
   XX=    32.3597   YX=    -5.6556   ZX=     4.7765
   XY=    -4.9999   YY=    29.1196   ZY=    -2.1359
   XZ=     6.3703   YZ=    -1.2401   ZZ=    35.4394
   Eigenvalues:    24.6986    30.7363    41.4838
     60  H    Isotropic =    33.2026   Anisotropy =     8.7368
   XX=    30.4527   YX=     3.6835   ZX=    -3.0445
   XY=     4.1483   YY=    36.3307   ZY=    -2.9695
   XZ=    -0.6101   YZ=     0.0434   ZZ=    32.8243
   Eigenvalues:    28.2617    32.3188    39.0271
     61  H    Isotropic =    32.4969   Anisotropy =    15.1673
   XX=    29.0425   YX=     0.2304   ZX=     5.4009
   XY=     0.2030   YY=    29.0174   ZY=     3.5591
   XZ=     5.2981   YZ=     3.8894   ZZ=    39.4307
   Eigenvalues:    26.0587    28.8235    42.6084
     62  H    Isotropic =    32.8172   Anisotropy =    12.7569
   XX=    34.6750   YX=     1.2229   ZX=    -6.2174
   XY=     1.7417   YY=    29.1746   ZY=    -2.7331
   XZ=    -6.1030   YZ=    -1.4307   ZZ=    34.6021
   Eigenvalues:    28.1335    28.9963    41.3219
     63  H    Isotropic =    32.0934   Anisotropy =    17.7017
   XX=    43.6034   YX=     2.7195   ZX=    -1.0305
   XY=     1.0306   YY=    27.8875   ZY=     1.3503
   XZ=    -1.6679   YZ=     1.8181   ZZ=    24.7891
   Eigenvalues:    23.9220    28.4636    43.8945
     64  H    Isotropic =    31.9687   Anisotropy =    13.4688
   XX=    31.1500   YX=    -3.3518   ZX=     4.6883
   XY=    -4.4565   YY=    32.7147   ZY=    -5.1302
   XZ=     4.8664   YZ=    -4.3168   ZZ=    32.0413
   Eigenvalues:    26.7555    28.2026    40.9479
     65  H    Isotropic =    32.7005   Anisotropy =    16.9382
   XX=    30.9207   YX=    -6.7667   ZX=    -0.7803
   XY=    -6.4725   YY=    39.3506   ZY=     3.9743
   XZ=    -0.8110   YZ=     4.3378   ZZ=    27.8301
   Eigenvalues:    25.7710    28.3378    43.9926
     66  H    Isotropic =    32.6471   Anisotropy =    11.7003
   XX=    33.4187   YX=     4.3574   ZX=    -2.6628
   XY=     3.8866   YY=    36.2356   ZY=    -2.9763
   XZ=    -2.6601   YZ=    -2.8486   ZZ=    28.2870
   Eigenvalues:    26.9676    30.5264    40.4473
     67  H    Isotropic =    32.7896   Anisotropy =    12.2656
   XX=    35.6380   YX=    -0.7254   ZX=    -6.0956
   XY=    -0.8704   YY=    29.0294   ZY=    -0.0463
   XZ=    -6.2593   YZ=     0.4126   ZZ=    33.7013
   Eigenvalues:    28.2274    29.1747    40.9666
     68  H    Isotropic =    32.5923   Anisotropy =    14.9706
   XX=    29.4026   YX=     1.3342   ZX=     4.4248
   XY=     0.9353   YY=    34.1560   ZY=     7.3265
   XZ=     3.8184   YZ=     7.2955   ZZ=    34.2182
   Eigenvalues:    25.4454    29.7588    42.5726
     69  H    Isotropic =    32.9854   Anisotropy =    12.0226
   XX=    38.7943   YX=    -0.2638   ZX=    -4.5068
   XY=     0.4816   YY=    26.9695   ZY=    -0.5096
   XZ=    -3.7218   YZ=    -1.8379   ZZ=    33.1924
   Eigenvalues:    26.7140    31.2417    41.0004
     70  H    Isotropic =    32.4996   Anisotropy =    10.6416
   XX=    28.1443   YX=     2.4224   ZX=     2.9593
   XY=     2.5163   YY=    32.9362   ZY=     4.3986
   XZ=     4.2104   YZ=     1.1480   ZZ=    36.4181
   Eigenvalues:    26.4725    31.4322    39.5939
     71  H    Isotropic =    31.9719   Anisotropy =    14.6732
   XX=    28.6637   YX=    -2.0401   ZX=     1.8534
   XY=    -2.0165   YY=    28.0719   ZY=    -4.3647
   XZ=     4.1623   YZ=    -4.7368   ZZ=    39.1802
   Eigenvalues:    26.0040    28.1578    41.7541
     72  H    Isotropic =    32.0102   Anisotropy =     9.8785
   XX=    32.6724   YX=     4.1686   ZX=    -1.9172
   XY=     4.2900   YY=    33.7517   ZY=    -2.2742
   XZ=    -1.3683   YZ=    -3.2721   ZZ=    29.6067
   Eigenvalues:    28.1081    29.3267    38.5959
     73  H    Isotropic =    31.4655   Anisotropy =     9.3780
   XX=    30.8914   YX=     1.5338   ZX=    -1.2907
   XY=     0.2879   YY=    34.1081   ZY=    -4.9124
   XZ=    -1.4539   YZ=    -5.3154   ZZ=    29.3971
   Eigenvalues:    26.0276    30.6514    37.7176
     74  H    Isotropic =    32.2985   Anisotropy =    14.9451
   XX=    33.3689   YX=     4.1726   ZX=     4.5938
   XY=     3.5064   YY=    33.0595   ZY=     6.7324
   XZ=     3.9928   YZ=     6.6894   ZZ=    30.4670
   Eigenvalues:    24.8072    29.8263    42.2619
     75  H    Isotropic =    31.2738   Anisotropy =    12.8209
   XX=    36.8099   YX=    -1.1869   ZX=     5.2664
   XY=    -0.6129   YY=    26.6970   ZY=     1.5035
   XZ=     5.4020   YZ=    -0.0275   ZZ=    30.3144
   Eigenvalues:    25.8711    28.1291    39.8210
     76  H    Isotropic =    30.5601   Anisotropy =    12.2082
   XX=    35.1987   YX=    -5.0423   ZX=    -2.6733
   XY=    -4.6027   YY=    29.8512   ZY=     0.1406
   XZ=    -3.4472   YZ=     0.5247   ZZ=    26.6303
   Eigenvalues:    25.1551    27.8263    38.6989
     77  H    Isotropic =    30.6622   Anisotropy =     7.7529
   XX=    30.4085   YX=     0.5939   ZX=    -0.0215
   XY=     0.1918   YY=    25.8916   ZY=     0.8851
   XZ=    -1.0275   YZ=     1.1165   ZZ=    35.6865
   Eigenvalues:    25.7480    30.4079    35.8308
     78  H    Isotropic =    30.5934   Anisotropy =    11.7439
   XX=    33.3231   YX=     4.5164   ZX=    -2.7921
   XY=     5.4029   YY=    31.8505   ZY=    -1.2800
   XZ=    -2.9715   YZ=    -1.5560   ZZ=    26.6066
   Eigenvalues:    25.4942    27.8634    38.4227
     79  H    Isotropic =    31.9449   Anisotropy =    11.5431
   XX=    29.4061   YX=    -2.2492   ZX=     0.2746
   XY=    -2.1468   YY=    32.9526   ZY=    -5.9833
   XZ=     2.4079   YZ=    -5.6427   ZZ=    33.4761
   Eigenvalues:    27.1438    29.0506    39.6403
     80  H    Isotropic =    30.7620   Anisotropy =    14.6906
   XX=    33.2835   YX=    -6.2290   ZX=    -2.2440
   XY=    -6.2555   YY=    33.6845   ZY=     3.0318
   XZ=    -1.4647   YZ=     3.2380   ZZ=    25.3180
   Eigenvalues:    24.2646    27.4657    40.5557
     81  H    Isotropic =    30.9351   Anisotropy =    10.9875
   XX=    36.7181   YX=     0.9781   ZX=     3.8317
   XY=     0.4313   YY=    30.5786   ZY=    -0.4294
   XZ=     4.8849   YZ=     0.0168   ZZ=    25.5085
   Eigenvalues:    23.9861    30.5591    38.2601
     82  H    Isotropic =    30.2724   Anisotropy =     8.7072
   XX=    28.3455   YX=    -1.5841   ZX=     1.4180
   XY=    -2.3005   YY=    27.3272   ZY=     1.5046
   XZ=     3.6546   YZ=     1.5932   ZZ=    35.1446
   Eigenvalues:    25.0472    29.6929    36.0772
     83  H    Isotropic =    29.8671   Anisotropy =    12.4862
   XX=    28.4167   YX=    -0.7659   ZX=    -0.4051
   XY=    -2.5274   YY=    37.8961   ZY=     0.3839
   XZ=    -2.0290   YZ=     0.2295   ZZ=    23.2886
   Eigenvalues:    23.0141    28.3960    38.1913
     84  H    Isotropic =    25.9810   Anisotropy =    11.7866
   XX=    29.6431   YX=    -5.7111   ZX=    -0.8257
   XY=    -5.3649   YY=    26.3015   ZY=     1.0753
   XZ=    -0.5072   YZ=     0.4330   ZZ=    21.9985
   Eigenvalues:    21.8045    22.2999    33.8387
     85  H    Isotropic =    25.9895   Anisotropy =     6.9569
   XX=    26.0643   YX=    -1.0499   ZX=    -3.3771
   XY=    -1.4149   YY=    25.3707   ZY=    -2.2829
   XZ=    -4.6957   YZ=    -3.1086   ZZ=    26.5335
   Eigenvalues:    20.6230    26.7181    30.6275
     86  H    Isotropic =    26.5632   Anisotropy =     7.2496
   XX=    27.2622   YX=    -4.3916   ZX=    -0.9754
   XY=    -4.4954   YY=    26.2574   ZY=    -3.0906
   XZ=    -2.2315   YZ=    -2.9414   ZZ=    26.1702
   Eigenvalues:    20.3703    27.9232    31.3963
     87  H    Isotropic =    31.6209   Anisotropy =     5.7469
   XX=    31.3965   YX=    -3.2848   ZX=    -1.3981
   XY=    -2.5232   YY=    30.3677   ZY=     2.1690
   XZ=    -1.5650   YZ=     0.3769   ZZ=    33.0984
   Eigenvalues:    27.9328    31.4777    35.4521
     88  H    Isotropic =    32.9952   Anisotropy =     8.8759
   XX=    32.2853   YX=    -3.3047   ZX=     2.4102
   XY=     0.7778   YY=    38.6478   ZY=     0.0450
   XZ=     3.6671   YZ=     0.1652   ZZ=    28.0524
   Eigenvalues:    26.4277    33.6454    38.9124
     89  H    Isotropic =    32.0489   Anisotropy =    13.6525
   XX=    35.9300   YX=     5.3156   ZX=    -3.1025
   XY=     6.9019   YY=    29.3914   ZY=    -3.4258
   XZ=    -1.8520   YZ=    -3.7677   ZZ=    30.8255
   Eigenvalues:    25.0341    29.9621    41.1506
     90  H    Isotropic =    32.1406   Anisotropy =    16.0402
   XX=    38.7186   YX=     5.4611   ZX=     4.4785
   XY=     6.4206   YY=    29.2213   ZY=     0.3062
   XZ=     4.6314   YZ=     0.2391   ZZ=    28.4819
   Eigenvalues:    25.0783    28.5095    42.8340
     91  H    Isotropic =    32.8123   Anisotropy =    11.9474
   XX=    28.8455   YX=    -2.1777   ZX=    -0.2285
   XY=    -0.0838   YY=    35.0289   ZY=     6.5199
   XZ=    -0.0036   YZ=     5.2990   ZZ=    34.5625
   Eigenvalues:    28.1299    29.5298    40.7772
     92  H    Isotropic =    30.7340   Anisotropy =    13.3746
   XX=    29.0578   YX=     4.6754   ZX=    -0.1959
   XY=     4.4009   YY=    34.0379   ZY=    -5.4839
   XZ=     0.3743   YZ=    -7.0305   ZZ=    29.1063
   Eigenvalues:    23.3920    29.1595    39.6504
     93  H    Isotropic =    31.8735   Anisotropy =    10.3301
   XX=    32.1878   YX=    -2.1334   ZX=    -3.5298
   XY=    -2.3133   YY=    26.9490   ZY=     0.1686
   XZ=    -3.7516   YZ=     0.7585   ZZ=    36.4837
   Eigenvalues:    26.0544    30.8059    38.7603
     94  H    Isotropic =    30.9708   Anisotropy =    12.6963
   XX=    30.2126   YX=    -6.0098   ZX=    -0.1678
   XY=    -5.9279   YY=    35.5504   ZY=    -0.2665
   XZ=     0.4428   YZ=    -0.5825   ZZ=    27.1493
   Eigenvalues:    26.3266    27.1507    39.4350
     95  H    Isotropic =    32.2187   Anisotropy =    17.6949
   XX=    28.2609   YX=    -0.0483   ZX=     3.6104
   XY=     0.0179   YY=    27.2037   ZY=    -5.1777
   XZ=     4.5269   YZ=    -5.7338   ZZ=    41.1916
   Eigenvalues:    24.7042    27.9367    44.0153
     96  H    Isotropic =    32.0215   Anisotropy =    15.4685
   XX=    40.2427   YX=    -0.6703   ZX=     4.7474
   XY=    -0.4265   YY=    25.9552   ZY=    -2.3364
   XZ=     5.1087   YZ=    -2.5241   ZZ=    29.8667
   Eigenvalues:    24.5740    29.1567    42.3339
     97  H    Isotropic =    32.5643   Anisotropy =    12.7473
   XX=    26.5412   YX=     0.5367   ZX=     1.5237
   XY=     1.3052   YY=    32.8925   ZY=     4.7017
   XZ=     1.9581   YZ=     4.2529   ZZ=    38.2592
   Eigenvalues:    26.2736    30.3568    41.0625
     98  H    Isotropic =    32.4621   Anisotropy =    14.6129
   XX=    40.1455   YX=     3.2456   ZX=     5.7915
   XY=     0.8610   YY=    30.4672   ZY=    -2.3238
   XZ=     4.7610   YZ=     0.3929   ZZ=    26.7734
   Eigenvalues:    24.5095    30.6727    42.2040
     99  H    Isotropic =    31.1812   Anisotropy =     9.5696
   XX=    30.7013   YX=     0.8909   ZX=    -2.6051
   XY=     0.7395   YY=    30.9180   ZY=     4.9891
   XZ=    -2.9753   YZ=     6.5311   ZZ=    31.9241
   Eigenvalues:    24.5959    31.3867    37.5609
    100  H    Isotropic =    30.6584   Anisotropy =    16.0279
   XX=    35.0658   YX=     8.4930   ZX=     2.4836
   XY=     5.8349   YY=    32.9891   ZY=    -1.2439
   XZ=     1.9313   YZ=    -0.3367   ZZ=    23.9204
   Eigenvalues:    22.8023    27.8293    41.3437
    101  H    Isotropic =    31.2269   Anisotropy =    12.8281
   XX=    38.9737   YX=    -0.8302   ZX=    -3.6917
   XY=    -1.8352   YY=    27.0800   ZY=    -0.3572
   XZ=    -2.0375   YZ=    -0.0526   ZZ=    27.6270
   Eigenvalues:    26.4452    27.4565    39.7789
    102  H    Isotropic =    29.7653   Anisotropy =    10.5573
   XX=    26.2655   YX=    -4.4753   ZX=    -1.8845
   XY=    -4.8658   YY=    34.6697   ZY=     0.0893
   XZ=    -0.4348   YZ=     0.3399   ZZ=    28.3608
   Eigenvalues:    23.9681    28.5242    36.8035
    103  H    Isotropic =    31.7032   Anisotropy =    14.8887
   XX=    41.6072   YX=    -1.0303   ZX=    -0.2989
   XY=    -0.1523   YY=    25.2765   ZY=     0.4193
   XZ=     0.1611   YZ=     0.1307   ZZ=    28.2260
   Eigenvalues:    25.2303    28.2503    41.6290
    104  H    Isotropic =    31.3331   Anisotropy =    12.9554
   XX=    34.6903   YX=     0.9038   ZX=    -5.9716
   XY=     1.1531   YY=    28.1610   ZY=    -1.4706
   XZ=    -6.8071   YZ=    -3.1541   ZZ=    31.1480
   Eigenvalues:    25.6129    28.4163    39.9700
    105  H    Isotropic =    30.5947   Anisotropy =    12.5760
   XX=    29.5547   YX=    -5.3182   ZX=     0.1835
   XY=    -6.2085   YY=    35.4060   ZY=     0.5670
   XZ=    -0.0945   YZ=     1.0173   ZZ=    26.8234
   Eigenvalues:    25.8087    26.9967    38.9787
    106  H    Isotropic =    30.5195   Anisotropy =     7.4131
   XX=    32.8616   YX=     3.7231   ZX=    -2.0000
   XY=     2.3749   YY=    31.8857   ZY=     2.3322
   XZ=    -1.7568   YZ=     2.0133   ZZ=    26.8111
   Eigenvalues:    24.9211    31.1758    35.4615
    107  H    Isotropic =    30.5658   Anisotropy =    11.1925
   XX=    26.5409   YX=    -1.1377   ZX=    -1.6080
   XY=    -1.2958   YY=    28.4875   ZY=     2.6862
   XZ=    -2.3875   YZ=     3.0598   ZZ=    36.6690
   Eigenvalues:    25.9118    27.7581    38.0275
    108  H    Isotropic =    30.7820   Anisotropy =    14.2818
   XX=    28.1665   YX=    -1.7434   ZX=     1.7687
   XY=    -1.8902   YY=    26.0376   ZY=    -4.7705
   XZ=     2.0994   YZ=    -4.8351   ZZ=    38.1419
   Eigenvalues:    24.0523    27.9905    40.3032
    109  H    Isotropic =    31.4697   Anisotropy =    11.8416
   XX=    32.4585   YX=    -3.5837   ZX=    -6.4684
   XY=    -3.3174   YY=    28.6876   ZY=    -1.3986
   XZ=    -6.1933   YZ=    -1.6660   ZZ=    33.2631
   Eigenvalues:    23.8403    31.2049    39.3641
    110  H    Isotropic =    31.9307   Anisotropy =    12.4324
   XX=    30.2572   YX=     4.9982   ZX=    -1.8190
   XY=     5.8446   YY=    35.9196   ZY=    -3.2618
   XZ=    -0.7481   YZ=    -2.8458   ZZ=    29.6151
   Eigenvalues:    26.8485    28.7246    40.2189
 End of Minotr F.D. properties file   721 does not exist.
 End of Minotr F.D. properties file   722 does not exist.
 End of Minotr F.D. properties file   788 does not exist.
 Hyperfine terms turned off by default for NAtoms > 100.

 **********************************************************************

            Population analysis using the SCF Density.

 **********************************************************************

 Orbital symmetries:
       Occupied  (A) (A) (A) (A) (A) (A) (A) (A) (A) (A) (A) (A)
                 (A) (A) (A) (A) (A) (A) (A) (A) (A) (A) (A) (A)
                 (A) (A) (A) (A) (A) (A) (A) (A) (A) (A) (A) (A)
                 (A) (A) (A) (A) (A) (A) (A) (A) (A) (A) (A) (A)
                 (A) (A) (A) (A) (A) (A) (A) (A) (A) (A) (A) (A)
                 (A) (A) (A) (A) (A) (A) (A) (A) (A) (A) (A) (A)
                 (A) (A) (A) (A) (A) (A) (A) (A) (A) (A) (A) (A)
                 (A) (A) (A) (A) (A) (A) (A) (A) (A) (A) (A) (A)
                 (A) (A) (A) (A) (A) (A) (A) (A) (A) (A) (A) (A)
                 (A) (A) (A) (A) (A) (A) (A) (A) (A) (A) (A) (A)
                 (A) (A) (A) (A) (A) (A) (A) (A) (A) (A) (A) (A)
                 (A) (A) (A) (A) (A) (A) (A) (A) (A) (A) (A) (A)
                 (A) (A) (A) (A) (A) (A) (A) (A) (A) (A) (A) (A)
                 (A) (A) (A) (A) (A) (A) (A) (A) (A) (A) (A) (A)
                 (A) (A) (A) (A) (A) (A) (A) (A) (A) (A) (A) (A)
                 (A) (A) (A) (A) (A) (A) (A) (A) (A) (A) (A) (A)
                 (A) (A) (A) (A) (A)
       Virtual   (A) (A) (A) (A) (A) (A) (A) (A) (A) (A) (A) (A)
                 (A) (A) (A) (A) (A) (A) (A) (A) (A) (A) (A) (A)
                 (A) (A) (A) (A) (A) (A) (A) (A) (A) (A) (A) (A)
                 (A) (A) (A) (A) (A) (A) (A) (A) (A) (A) (A) (A)
                 (A) (A) (A) (A) (A) (A) (A) (A) (A) (A) (A) (A)
                 (A) (A) (A) (A) (A) (A) (A) (A) (A) (A) (A) (A)
                 (A) (A) (A) (A) (A) (A) (A) (A) (A) (A) (A) (A)
                 (A) (A) (A) (A) (A) (A) (A) (A) (A) (A) (A) (A)
                 (A) (A) (A) (A) (A) (A) (A) (A) (A) (A) (A) (A)
                 (A) (A) (A) (A) (A) (A) (A) (A) (A) (A) (A) (A)
                 (A) (A) (A) (A) (A) (A) (A) (A) (A)
 The electronic state is 1-A.
 Alpha  occ. eigenvalues --  -20.30502 -20.28511 -20.24471 -20.22509 -19.92025
 Alpha  occ. eigenvalues --  -15.48028 -15.33404 -15.33375 -15.30482 -11.16380
 Alpha  occ. eigenvalues --  -11.14752 -11.10453 -11.09596 -11.09281 -11.09232
 Alpha  occ. eigenvalues --  -11.08894 -11.08753 -11.08637 -11.07992 -11.07779
 Alpha  occ. eigenvalues --  -11.06851 -11.06642 -11.06335 -11.06245 -11.06198
 Alpha  occ. eigenvalues --  -11.06036 -11.05786 -11.05629 -11.05506 -11.05407
 Alpha  occ. eigenvalues --  -11.05147 -11.05111 -11.04733 -11.04470 -11.04459
 Alpha  occ. eigenvalues --  -11.04195 -11.04128 -11.03859 -11.03693 -11.03663
 Alpha  occ. eigenvalues --  -11.03659 -11.03629 -11.03587 -11.03129 -11.02127
 Alpha  occ. eigenvalues --  -11.02104 -11.02024 -11.01880 -11.01791 -11.01609
 Alpha  occ. eigenvalues --  -11.01550 -11.01436 -11.01282 -11.01177  -1.37723
 Alpha  occ. eigenvalues --   -1.35748  -1.29424  -1.27523  -1.25494  -1.21256
 Alpha  occ. eigenvalues --   -1.20797  -1.18689  -1.10471  -1.09486  -1.08823
 Alpha  occ. eigenvalues --   -1.07408  -1.05678  -1.04693  -1.02721  -1.00663
 Alpha  occ. eigenvalues --   -0.99008  -0.98703  -0.98258  -0.97351  -0.96612
 Alpha  occ. eigenvalues --   -0.96474  -0.95063  -0.94333  -0.94011  -0.92227
 Alpha  occ. eigenvalues --   -0.91502  -0.91395  -0.89516  -0.89276  -0.87829
 Alpha  occ. eigenvalues --   -0.86343  -0.84651  -0.82695  -0.81726  -0.81162
 Alpha  occ. eigenvalues --   -0.80344  -0.79421  -0.78138  -0.77502  -0.77309
 Alpha  occ. eigenvalues --   -0.77088  -0.74340  -0.73985  -0.72680  -0.72115
 Alpha  occ. eigenvalues --   -0.71095  -0.70138  -0.69205  -0.68327  -0.65757
 Alpha  occ. eigenvalues --   -0.65000  -0.64744  -0.64490  -0.63437  -0.62865
 Alpha  occ. eigenvalues --   -0.62457  -0.62067  -0.61469  -0.61257  -0.60991
 Alpha  occ. eigenvalues --   -0.60486  -0.59515  -0.59086  -0.58565  -0.58364
 Alpha  occ. eigenvalues --   -0.58138  -0.57900  -0.57757  -0.57448  -0.57220
 Alpha  occ. eigenvalues --   -0.56619  -0.56563  -0.56461  -0.55600  -0.55121
 Alpha  occ. eigenvalues --   -0.54925  -0.54702  -0.54556  -0.54401  -0.54246
 Alpha  occ. eigenvalues --   -0.54121  -0.53620  -0.53153  -0.52356  -0.51693
 Alpha  occ. eigenvalues --   -0.51562  -0.50882  -0.50809  -0.50689  -0.50127
 Alpha  occ. eigenvalues --   -0.49817  -0.49429  -0.49114  -0.48962  -0.48672
 Alpha  occ. eigenvalues --   -0.48168  -0.47933  -0.47618  -0.47352  -0.47001
 Alpha  occ. eigenvalues --   -0.46354  -0.45945  -0.45749  -0.45416  -0.44962
 Alpha  occ. eigenvalues --   -0.44803  -0.44594  -0.44349  -0.44131  -0.43605
 Alpha  occ. eigenvalues --   -0.43333  -0.43256  -0.43194  -0.42467  -0.42382
 Alpha  occ. eigenvalues --   -0.42180  -0.41809  -0.41294  -0.40931  -0.40556
 Alpha  occ. eigenvalues --   -0.40273  -0.39941  -0.38705  -0.38258  -0.38200
 Alpha  occ. eigenvalues --   -0.37271  -0.37142  -0.36304  -0.35432  -0.34062
 Alpha  occ. eigenvalues --   -0.33196  -0.33138  -0.31944  -0.31210  -0.30529
 Alpha  occ. eigenvalues --   -0.27111  -0.27018  -0.26065  -0.21014  -0.20268
 Alpha  occ. eigenvalues --   -0.15984  -0.15461
 Alpha virt. eigenvalues --    0.26987   0.27116   0.27724   0.28909   0.30589
 Alpha virt. eigenvalues --    0.32844   0.45710   0.48301   0.48587   0.49133
 Alpha virt. eigenvalues --    0.49449   0.49994   0.50427   0.51532   0.52398
 Alpha virt. eigenvalues --    0.54329   0.55250   0.55398   0.55713   0.55778
 Alpha virt. eigenvalues --    0.57246   0.57367   0.58130   0.58750   0.58994
 Alpha virt. eigenvalues --    0.59723   0.59994   0.60108   0.60531   0.61235
 Alpha virt. eigenvalues --    0.61599   0.61856   0.62183   0.62862   0.63197
 Alpha virt. eigenvalues --    0.63426   0.63709   0.64213   0.64536   0.64629
 Alpha virt. eigenvalues --    0.65035   0.65088   0.65448   0.65517   0.65842
 Alpha virt. eigenvalues --    0.66233   0.66615   0.66698   0.67089   0.67445
 Alpha virt. eigenvalues --    0.67642   0.67769   0.67962   0.68229   0.68424
 Alpha virt. eigenvalues --    0.69054   0.69112   0.69674   0.69864   0.70043
 Alpha virt. eigenvalues --    0.70382   0.70588   0.70667   0.70836   0.71287
 Alpha virt. eigenvalues --    0.71365   0.71439   0.71691   0.72109   0.72573
 Alpha virt. eigenvalues --    0.72819   0.73211   0.73481   0.73723   0.73987
 Alpha virt. eigenvalues --    0.74190   0.74361   0.74480   0.74712   0.75163
 Alpha virt. eigenvalues --    0.75307   0.75687   0.75991   0.76214   0.76290
 Alpha virt. eigenvalues --    0.76578   0.76883   0.77238   0.77497   0.77866
 Alpha virt. eigenvalues --    0.78190   0.78284   0.78757   0.79111   0.79345
 Alpha virt. eigenvalues --    0.79596   0.80167   0.80467   0.80753   0.80981
 Alpha virt. eigenvalues --    0.81234   0.81258   0.81532   0.81713   0.81990
 Alpha virt. eigenvalues --    0.82606   0.84039   0.84305   0.84478   0.84723
 Alpha virt. eigenvalues --    0.85804   0.86405   0.86513   0.87313   0.87708
 Alpha virt. eigenvalues --    0.88201   0.89537   0.90942   0.91755   0.94320
 Alpha virt. eigenvalues --    0.94668   0.95776   0.97820   1.01543   1.03332
 Alpha virt. eigenvalues --    1.10561   1.11576   1.15962   1.16276
          Condensed to atoms (all electrons):
 Mulliken charges:
               1
     1  C   -0.074726
     2  C   -0.000511
     3  C   -0.062154
     4  C   -0.090148
     5  C    0.088879
     6  C   -0.012352
     7  N   -0.286067
     8  C    0.017745
     9  C    0.127757
    10  C    0.039858
    11  C   -0.114975
    12  C   -0.105628
    13  C    0.027980
    14  N   -0.291521
    15  C   -0.016256
    16  C   -0.108130
    17  C   -0.102310
    18  C   -0.105414
    19  C   -0.020076
    20  C   -0.110477
    21  C   -0.066502
    22  C    0.319586
    23  O   -0.277114
    24  O   -0.255452
    25  C   -0.055780
    26  C   -0.079247
    27  C   -0.109650
    28  C    0.001314
    29  C   -0.079763
    30  C   -0.061726
    31  C   -0.089915
    32  C    0.095354
    33  C   -0.013866
    34  N   -0.281475
    35  C    0.015279
    36  C    0.134993
    37  C    0.039543
    38  C   -0.115986
    39  C   -0.105400
    40  C    0.040087
    41  N   -0.081775
    42  C   -0.003123
    43  C   -0.097198
    44  C   -0.099120
    45  C   -0.098113
    46  C   -0.003864
    47  C   -0.098451
    48  C   -0.058417
    49  C    0.327598
    50  O   -0.275954
    51  O   -0.255753
    52  C   -0.053995
    53  C   -0.077062
    54  O   -0.461914
    55  H    0.065514
    56  H    0.054964
    57  H    0.057803
    58  H    0.057448
    59  H    0.050511
    60  H    0.055239
    61  H    0.048270
    62  H    0.052229
    63  H    0.055222
    64  H    0.060050
    65  H    0.055328
    66  H    0.050119
    67  H    0.052430
    68  H    0.051523
    69  H    0.063809
    70  H    0.061629
    71  H    0.055399
    72  H    0.051912
    73  H    0.067562
    74  H    0.051431
    75  H    0.064868
    76  H    0.077062
    77  H    0.074524
    78  H    0.072259
    79  H    0.055491
    80  H    0.071456
    81  H    0.076375
    82  H    0.057995
    83  H    0.058046
    84  H    0.053409
    85  H    0.057247
    86  H    0.060279
    87  H    0.053944
    88  H    0.054423
    89  H    0.049206
    90  H    0.052986
    91  H    0.046891
    92  H    0.084747
    93  H    0.055740
    94  H    0.080640
    95  H    0.057752
    96  H    0.058244
    97  H    0.046672
    98  H    0.068305
    99  H    0.094370
   100  H    0.091271
   101  H    0.059307
   102  H    0.101997
   103  H    0.044603
   104  H    0.061736
   105  H    0.074153
   106  H    0.077999
   107  H    0.067179
   108  H    0.075095
   109  H    0.072100
   110  H    0.054622
 Sum of Mulliken charges =  -0.00000
 Mulliken charges with hydrogens summed into heavy atoms:
               1
     1  C   -0.009212
     2  C   -0.000511
     3  C   -0.007190
     4  C   -0.032345
     5  C    0.088879
     6  C   -0.012352
     7  N   -0.286067
     8  C    0.017745
     9  C    0.127757
    10  C    0.097306
    11  C   -0.009224
    12  C   -0.005129
    13  C    0.027980
    14  N   -0.291521
    15  C    0.099016
    16  C   -0.002683
    17  C    0.001643
    18  C    0.020024
    19  C    0.087235
    20  C    0.008516
    21  C   -0.001633
    22  C    0.319586
    23  O   -0.277114
    24  O   -0.255452
    25  C    0.168064
    26  C    0.124076
    27  C    0.006391
    28  C    0.001314
    29  C   -0.026354
    30  C   -0.004479
    31  C   -0.029636
    32  C    0.095354
    33  C   -0.013866
    34  N   -0.281475
    35  C    0.015279
    36  C    0.134993
    37  C    0.093487
    38  C   -0.012357
    39  C   -0.005522
    40  C    0.040087
    41  N   -0.081775
    42  C    0.137364
    43  C    0.041195
    44  C    0.005795
    45  C    0.064562
    46  C    0.146714
    47  C    0.048149
    48  C    0.003319
    49  C    0.327598
    50  O   -0.275954
    51  O   -0.255753
    52  C    0.165337
    53  C    0.124756
    54  O   -0.461914
 Electronic spatial extent (au):  <R**2>=          38731.3853
 Charge=             -0.0000 electrons
 Dipole moment (field-independent basis, Debye):
    X=             -1.2308    Y=              2.1806    Z=              0.9997  Tot=              2.6961
 Quadrupole moment (field-independent basis, Debye-Ang):
   XX=           -281.9619   YY=           -302.1607   ZZ=           -292.0212
   XY=             10.5590   XZ=             10.7719   YZ=              0.4853
 Traceless Quadrupole moment (field-independent basis, Debye-Ang):
   XX=             10.0861   YY=            -10.1128   ZZ=              0.0268
   XY=             10.5590   XZ=             10.7719   YZ=              0.4853
 Octapole moment (field-independent basis, Debye-Ang**2):
  XXX=            -94.0813  YYY=            -39.2726  ZZZ=             23.8803  XYY=             -3.4517
  XXY=             61.8029  XXZ=            -24.0736  XZZ=             26.4615  YZZ=            -20.5189
  YYZ=            -36.2863  XYZ=            -12.8619
 Hexadecapole moment (field-independent basis, Debye-Ang**3):
 XXXX=         -33134.4762 YYYY=          -8630.3025 ZZZZ=          -4764.3516 XXXY=             94.3454
 XXXZ=           -349.4647 YYYX=           -235.8836 YYYZ=             51.1681 ZZZX=            -92.5382
 ZZZY=            -71.9476 XXYY=          -7348.1697 XXZZ=          -6345.7482 YYZZ=          -2214.5611
 XXYZ=             87.7662 YYXZ=           -103.0790 ZZXY=            -73.5312
 N-N= 8.104418014381D+03 E-N=-2.158589673652D+04  KE= 2.279089111510D+03
 ******************************Gaussian NBO Version 3.1******************************
             N A T U R A L   A T O M I C   O R B I T A L   A N D
          N A T U R A L   B O N D   O R B I T A L   A N A L Y S I S
 ******************************Gaussian NBO Version 3.1******************************
       /RESON  / : Allow strongly delocalized NBO set
       /NLMO   / : Form Natural Localized Molecular Orbitals
       /NMR /    : Analyze NMR Sheilding Tensor 

 Analyzing the SCF density

 Job title: Pleiokomenine_C_2                                               

 Storage needed:    355564 in NPA,    438187 in NBO,   2133784 in NLMO ( 104796000 available)
 GSVD:  LWork=     -108884 too small for GESVD, short by      536270 words or      536270 for optimal perf.


 NATURAL POPULATIONS:  Natural atomic orbital occupancies 
                                                          
   NAO  Atom  No  lang   Type(AO)    Occupancy      Energy
 ----------------------------------------------------------
     1    C    1  S      Cor( 1S)     1.99993     -10.94035
     2    C    1  S      Val( 2S)     1.07852      -0.17139
     3    C    1  px     Val( 2p)     0.98588       0.15373
     4    C    1  py     Val( 2p)     0.98070       0.16301
     5    C    1  pz     Val( 2p)     1.01136       0.01834
 
     6    C    2  S      Cor( 1S)     1.99990     -10.95321
     7    C    2  S      Val( 2S)     1.07851      -0.18012
     8    C    2  px     Val( 2p)     0.94101       0.16947
     9    C    2  py     Val( 2p)     0.95711       0.17950
    10    C    2  pz     Val( 2p)     1.00978       0.02761
 
    11    C    3  S      Cor( 1S)     1.99994     -10.94440
    12    C    3  S      Val( 2S)     1.08441      -0.17963
    13    C    3  px     Val( 2p)     0.96712       0.16497
    14    C    3  py     Val( 2p)     0.97513       0.15933
    15    C    3  pz     Val( 2p)     1.00718       0.01889
 
    16    C    4  S      Cor( 1S)     1.99993     -10.93744
    17    C    4  S      Val( 2S)     1.07205      -0.17006
    18    C    4  px     Val( 2p)     0.98617       0.15315
    19    C    4  py     Val( 2p)     0.97217       0.16442
    20    C    4  pz     Val( 2p)     1.05674       0.00654
 
    21    C    5  S      Cor( 1S)     1.99985     -10.98394
    22    C    5  S      Val( 2S)     1.05892      -0.18010
    23    C    5  px     Val( 2p)     0.89081       0.16330
    24    C    5  py     Val( 2p)     0.95843       0.17099
    25    C    5  pz     Val( 2p)     0.98004       0.01873
 
    26    C    6  S      Cor( 1S)     1.99990     -10.94197
    27    C    6  S      Val( 2S)     1.08240      -0.18240
    28    C    6  px     Val( 2p)     0.97127       0.17494
    29    C    6  py     Val( 2p)     0.94767       0.15794
    30    C    6  pz     Val( 2p)     1.02272       0.02246
 
    31    N    7  S      Cor( 1S)     1.99998     -15.26649
    32    N    7  S      Val( 2S)     1.40648      -0.59260
    33    N    7  px     Val( 2p)     1.18816      -0.01809
    34    N    7  py     Val( 2p)     1.10613       0.00103
    35    N    7  pz     Val( 2p)     1.57358      -0.18421
 
    36    C    8  S      Cor( 1S)     1.99996     -11.00379
    37    C    8  S      Val( 2S)     1.10893      -0.22901
    38    C    8  px     Val( 2p)     0.96231       0.08321
    39    C    8  py     Val( 2p)     0.96458       0.11225
    40    C    8  pz     Val( 2p)     0.94500       0.10861
 
    41    C    9  S      Cor( 1S)     1.99996     -11.04792
    42    C    9  S      Val( 2S)     1.11231      -0.25427
    43    C    9  px     Val( 2p)     0.92383       0.08800
    44    C    9  py     Val( 2p)     0.85519       0.12391
    45    C    9  pz     Val( 2p)     0.93725       0.08821
 
    46    C   10  S      Cor( 1S)     1.99993     -11.01504
    47    C   10  S      Val( 2S)     1.09795      -0.21770
    48    C   10  px     Val( 2p)     0.96360       0.09842
    49    C   10  py     Val( 2p)     0.94267       0.08626
    50    C   10  pz     Val( 2p)     0.92218       0.11254
 
    51    C   11  S      Cor( 1S)     1.99994     -10.97804
    52    C   11  S      Val( 2S)     1.10384      -0.21247
    53    C   11  px     Val( 2p)     1.01157       0.08488
    54    C   11  py     Val( 2p)     0.99411       0.08898
    55    C   11  pz     Val( 2p)     0.97571       0.08521
 
    56    C   12  S      Cor( 1S)     1.99996     -10.97544
    57    C   12  S      Val( 2S)     1.09140      -0.19767
    58    C   12  px     Val( 2p)     1.01379       0.08768
    59    C   12  py     Val( 2p)     0.98163       0.09081
    60    C   12  pz     Val( 2p)     0.98719       0.09494
 
    61    C   13  S      Cor( 1S)     1.99998     -11.00224
    62    C   13  S      Val( 2S)     1.10511      -0.22596
    63    C   13  px     Val( 2p)     0.93611       0.11528
    64    C   13  py     Val( 2p)     0.94963       0.11161
    65    C   13  pz     Val( 2p)     0.95878       0.09840
 
    66    N   14  S      Cor( 1S)     1.99999     -15.23794
    67    N   14  S      Val( 2S)     1.42812      -0.58226
    68    N   14  px     Val( 2p)     1.42913      -0.10187
    69    N   14  py     Val( 2p)     1.27688      -0.04204
    70    N   14  pz     Val( 2p)     1.14536       0.00686
 
    71    C   15  S      Cor( 1S)     1.99993     -11.00634
    72    C   15  S      Val( 2S)     1.06992      -0.18842
    73    C   15  px     Val( 2p)     0.98120       0.08363
    74    C   15  py     Val( 2p)     0.91105       0.11783
    75    C   15  pz     Val( 2p)     1.00044       0.08440
 
    76    C   16  S      Cor( 1S)     1.99997     -10.97439
    77    C   16  S      Val( 2S)     1.08078      -0.18759
    78    C   16  px     Val( 2p)     1.01229       0.09039
    79    C   16  py     Val( 2p)     0.99412       0.09333
    80    C   16  pz     Val( 2p)     0.98744       0.09487
 
    81    C   17  S      Cor( 1S)     1.99996     -10.97677
    82    C   17  S      Val( 2S)     1.08583      -0.19224
    83    C   17  px     Val( 2p)     1.00939       0.08941
    84    C   17  py     Val( 2p)     0.98709       0.09349
    85    C   17  pz     Val( 2p)     0.98655       0.09512
 
    86    C   18  S      Cor( 1S)     1.99995     -10.97393
    87    C   18  S      Val( 2S)     1.09202      -0.19444
    88    C   18  px     Val( 2p)     1.02497       0.09251
    89    C   18  py     Val( 2p)     0.98375       0.08776
    90    C   18  pz     Val( 2p)     0.97465       0.09818
 
    91    C   19  S      Cor( 1S)     1.99994     -10.99876
    92    C   19  S      Val( 2S)     1.07197      -0.18391
    93    C   19  px     Val( 2p)     0.94570       0.10503
    94    C   19  py     Val( 2p)     0.99610       0.08977
    95    C   19  pz     Val( 2p)     0.95309       0.09842
 
    96    C   20  S      Cor( 1S)     1.99992     -10.98270
    97    C   20  S      Val( 2S)     1.09991      -0.21068
    98    C   20  px     Val( 2p)     0.97084       0.08568
    99    C   20  py     Val( 2p)     0.97521       0.09327
   100    C   20  pz     Val( 2p)     1.02771       0.07706
 
   101    C   21  S      Cor( 1S)     1.99994     -11.00697
   102    C   21  S      Val( 2S)     1.11088      -0.23763
   103    C   21  px     Val( 2p)     0.98766       0.07967
   104    C   21  py     Val( 2p)     0.99231       0.06968
   105    C   21  pz     Val( 2p)     0.99371       0.06856
 
   106    C   22  S      Cor( 1S)     1.99991     -11.11087
   107    C   22  S      Val( 2S)     1.05494      -0.25981
   108    C   22  px     Val( 2p)     0.84163       0.07588
   109    C   22  py     Val( 2p)     0.81130       0.11796
   110    C   22  pz     Val( 2p)     0.88926       0.08478
 
   111    O   23  S      Cor( 1S)     1.99999     -20.09734
   112    O   23  S      Val( 2S)     1.80820      -1.05717
   113    O   23  px     Val( 2p)     1.68543      -0.26848
   114    O   23  py     Val( 2p)     1.35466      -0.13449
   115    O   23  pz     Val( 2p)     1.46300      -0.17483
 
   116    O   24  S      Cor( 1S)     1.99999     -20.21440
   117    O   24  S      Val( 2S)     1.73007      -1.02701
   118    O   24  px     Val( 2p)     1.37334      -0.16257
   119    O   24  py     Val( 2p)     1.65552      -0.29021
   120    O   24  pz     Val( 2p)     1.50813      -0.22890
 
   121    C   25  S      Cor( 1S)     1.99984     -11.04485
   122    C   25  S      Val( 2S)     1.07695      -0.22649
   123    C   25  px     Val( 2p)     0.95932       0.05173
   124    C   25  py     Val( 2p)     1.04038       0.03898
   125    C   25  pz     Val( 2p)     0.88889       0.07458
 
   126    C   26  S      Cor( 1S)     1.99992     -11.01359
   127    C   26  S      Val( 2S)     1.06538      -0.19424
   128    C   26  px     Val( 2p)     0.95692       0.07756
   129    C   26  py     Val( 2p)     1.00665       0.06480
   130    C   26  pz     Val( 2p)     0.98782       0.07693
 
   131    C   27  S      Cor( 1S)     1.99995     -10.98152
   132    C   27  S      Val( 2S)     1.08331      -0.18681
   133    C   27  px     Val( 2p)     0.98086       0.09861
   134    C   27  py     Val( 2p)     1.01313       0.08890
   135    C   27  pz     Val( 2p)     1.00892       0.09038
 
   136    C   28  S      Cor( 1S)     1.99991     -10.95438
   137    C   28  S      Val( 2S)     1.07869      -0.18248
   138    C   28  px     Val( 2p)     0.96042       0.11364
   139    C   28  py     Val( 2p)     0.98219       0.10943
   140    C   28  pz     Val( 2p)     0.96339       0.14958
 
   141    C   29  S      Cor( 1S)     1.99992     -10.94612
   142    C   29  S      Val( 2S)     1.07771      -0.17812
   143    C   29  px     Val( 2p)     0.99649       0.08773
   144    C   29  py     Val( 2p)     0.99966       0.09329
   145    C   29  pz     Val( 2p)     0.99016       0.13094
 
   146    C   30  S      Cor( 1S)     1.99994     -10.94614
   147    C   30  S      Val( 2S)     1.08377      -0.18066
   148    C   30  px     Val( 2p)     0.98459       0.09967
   149    C   30  py     Val( 2p)     0.99391       0.09409
   150    C   30  pz     Val( 2p)     0.97094       0.14485
 
   151    C   31  S      Cor( 1S)     1.99993     -10.93951
   152    C   31  S      Val( 2S)     1.07136      -0.17102
   153    C   31  px     Val( 2p)     1.01537       0.08703
   154    C   31  py     Val( 2p)     1.00638       0.09573
   155    C   31  pz     Val( 2p)     0.99514       0.13459
 
   156    C   32  S      Cor( 1S)     1.99985     -10.98875
   157    C   32  S      Val( 2S)     1.06024      -0.18470
   158    C   32  px     Val( 2p)     0.92536       0.10863
   159    C   32  py     Val( 2p)     0.95053       0.11294
   160    C   32  pz     Val( 2p)     0.94461       0.12657
 
   161    C   33  S      Cor( 1S)     1.99990     -10.94948
   162    C   33  S      Val( 2S)     1.08617      -0.19381
   163    C   33  px     Val( 2p)     0.99628       0.09143
   164    C   33  py     Val( 2p)     0.96179       0.11127
   165    C   33  pz     Val( 2p)     0.97795       0.13295
 
   166    N   34  S      Cor( 1S)     1.99998     -15.26582
   167    N   34  S      Val( 2S)     1.39293      -0.58498
   168    N   34  px     Val( 2p)     1.19778      -0.03234
   169    N   34  py     Val( 2p)     1.45690      -0.13468
   170    N   34  pz     Val( 2p)     1.22396      -0.03278
 
   171    C   35  S      Cor( 1S)     1.99996     -11.01196
   172    C   35  S      Val( 2S)     1.10411      -0.23573
   173    C   35  px     Val( 2p)     0.94927       0.10097
   174    C   35  py     Val( 2p)     0.97135       0.09455
   175    C   35  pz     Val( 2p)     0.96396       0.08113
 
   176    C   36  S      Cor( 1S)     1.99996     -11.04903
   177    C   36  S      Val( 2S)     1.11434      -0.25524
   178    C   36  px     Val( 2p)     0.92052       0.10736
   179    C   36  py     Val( 2p)     0.92330       0.09324
   180    C   36  pz     Val( 2p)     0.86321       0.10682
 
   181    C   37  S      Cor( 1S)     1.99991     -11.03249
   182    C   37  S      Val( 2S)     1.10903      -0.24926
   183    C   37  px     Val( 2p)     0.98899       0.06292
   184    C   37  py     Val( 2p)     0.83915       0.09528
   185    C   37  pz     Val( 2p)     0.99427       0.06275
 
   186    C   38  S      Cor( 1S)     1.99993     -10.97832
   187    C   38  S      Val( 2S)     1.10882      -0.21712
   188    C   38  px     Val( 2p)     1.00941       0.07921
   189    C   38  py     Val( 2p)     0.99096       0.08784
   190    C   38  pz     Val( 2p)     0.97536       0.09081
 
   191    C   39  S      Cor( 1S)     1.99996     -10.97967
   192    C   39  S      Val( 2S)     1.09079      -0.20124
   193    C   39  px     Val( 2p)     1.01775       0.08381
   194    C   39  py     Val( 2p)     0.97968       0.08778
   195    C   39  pz     Val( 2p)     0.98632       0.08823
 
   196    C   40  S      Cor( 1S)     1.99998     -11.01216
   197    C   40  S      Val( 2S)     1.09912      -0.22674
   198    C   40  px     Val( 2p)     0.93209       0.10736
   199    C   40  py     Val( 2p)     0.95799       0.09849
   200    C   40  pz     Val( 2p)     0.95190       0.10461
 
   201    N   41  S      Cor( 1S)     1.99999     -15.41630
   202    N   41  S      Val( 2S)     1.39328      -0.65668
   203    N   41  px     Val( 2p)     1.19869      -0.11945
   204    N   41  py     Val( 2p)     1.19148      -0.10735
   205    N   41  pz     Val( 2p)     1.18409      -0.10841
 
   206    C   42  S      Cor( 1S)     1.99992     -11.03777
   207    C   42  S      Val( 2S)     1.09115      -0.23461
   208    C   42  px     Val( 2p)     1.00332       0.05160
   209    C   42  py     Val( 2p)     1.02493       0.05205
   210    C   42  pz     Val( 2p)     0.83058       0.09420
 
   211    C   43  S      Cor( 1S)     1.99995     -10.99164
   212    C   43  S      Val( 2S)     1.08732      -0.20566
   213    C   43  px     Val( 2p)     0.95151       0.09384
   214    C   43  py     Val( 2p)     1.00778       0.07692
   215    C   43  pz     Val( 2p)     1.01684       0.08129
 
   216    C   44  S      Cor( 1S)     1.99994     -10.98755
   217    C   44  S      Val( 2S)     1.09175      -0.20606
   218    C   44  px     Val( 2p)     1.01054       0.08113
   219    C   44  py     Val( 2p)     0.98286       0.08797
   220    C   44  pz     Val( 2p)     0.97731       0.08929
 
   221    C   45  S      Cor( 1S)     1.99993     -10.98413
   222    C   45  S      Val( 2S)     1.09890      -0.20685
   223    C   45  px     Val( 2p)     0.99959       0.08911
   224    C   45  py     Val( 2p)     0.98793       0.08211
   225    C   45  pz     Val( 2p)     0.98062       0.09103
 
   226    C   46  S      Cor( 1S)     1.99993     -11.02960
   227    C   46  S      Val( 2S)     1.09487      -0.23068
   228    C   46  px     Val( 2p)     0.84489       0.09855
   229    C   46  py     Val( 2p)     1.03292       0.05512
   230    C   46  pz     Val( 2p)     0.98064       0.05674
 
   231    C   47  S      Cor( 1S)     1.99991     -10.97364
   232    C   47  S      Val( 2S)     1.10304      -0.20113
   233    C   47  px     Val( 2p)     0.98367       0.10284
   234    C   47  py     Val( 2p)     1.04531       0.08970
   235    C   47  pz     Val( 2p)     0.92855       0.11076
 
   236    C   48  S      Cor( 1S)     1.99994     -11.00264
[...]
   89      -0.3900        0.3971      -0.7871        -1.1245       0.7345
  102       1.5564        0.3248       1.2316         0.5868       0.9695
  103       0.3022        1.5468      -1.2445        -0.5778       0.8801
  104       0.0657        1.3398      -1.2741        -0.8834       0.9490
  105       0.5376        3.2010      -2.6633        -0.5701       1.1077
  106       1.9010        3.9540      -2.0530         0.0575       1.8435
  107      26.3883       -0.2739      26.6623         0.5675      25.8208
  109       0.0360       -0.0354       0.0714        -1.0892       1.1253
 Sum       30.3972       10.4539      19.9433        -3.0332      33.4304

 Contributions to Isotropic shielding for atom   96 (    32.0216 ppm):
                         Standard Origin              Atomic Origin
 NLMO      Total    Paramagnetic  Diamagnetic   Paramagnetic  Diamagnetic
   89      -0.4899        0.4495      -0.9393        -1.2096       0.7198
   94      -0.2074        1.6454      -1.8528        -0.7354       0.5280
   97       1.0807        1.4222      -0.3415         0.1120       0.9687
   98      -0.3985        2.0338      -2.4323        -1.3836       0.9851
  105       0.5529        3.2351      -2.6822        -0.5264       1.0794
  106       0.0717        0.7685      -0.6967        -1.0404       1.1121
  107       0.3218        1.0732      -0.7514        -0.5408       0.8626
  108      26.4977       -0.4263      26.9240         0.7449      25.7528
  109       1.8609        3.3871      -1.5262         0.1337       1.7272
 Sum       29.2901       13.5885      15.7016        -4.4455      33.7356

 Contributions to Isotropic shielding for atom   97 (    32.5643 ppm):
                         Standard Origin              Atomic Origin
 NLMO      Total    Paramagnetic  Diamagnetic   Paramagnetic  Diamagnetic
   89      -0.4806        0.5195      -1.0000        -1.0922       0.6117
   90      -0.1389        1.3223      -1.4612        -0.8117       0.6728
   94      -0.2521        1.0291      -1.2813        -1.1926       0.9405
   97       1.9981       -1.4130       3.4111         1.0445       0.9537
  102       0.2295       -0.8569       1.0863        -0.3024       0.5319
  105       1.2590        0.3268       0.9322         0.1243       1.1347
  107       0.0533        0.0433       0.0100        -0.9681       1.0215
  108       1.4406        4.2624      -2.8218        -0.3989       1.8395
  109      26.5670        0.1493      26.4177         0.4975      26.0694
 Sum       30.6759        5.3828      25.2930        -3.0997      33.7755

 Contributions to Isotropic shielding for atom   98 (    32.4621 ppm):
                         Standard Origin              Atomic Origin
 NLMO      Total    Paramagnetic  Diamagnetic   Paramagnetic  Diamagnetic
   71      -0.0204       -1.0733       1.0529        -1.0478       1.0274
   80       0.3106       -1.0634       1.3740        -0.7873       1.0979
   81       0.2861       -0.8134       1.0994        -0.5100       0.7960
   85       1.1472        0.5228       0.6244         0.5205       0.6267
   89       0.4545       -0.6702       1.1247        -0.4914       0.9459
  110       1.3102       -0.7958       2.1060         0.4900       0.8202
  111      25.8756        0.6266      25.2490         0.4274      25.4482
  112       1.9577        0.2950       1.6627         0.0326       1.9251
  114       0.2286       -0.7789       1.0075        -0.6972       0.9259
  121       0.0273       -1.1248       1.1521        -0.7743       0.8016
 Sum       31.5774       -4.8752      36.4526        -2.8376      34.4150

 Contributions to Isotropic shielding for atom   99 (    31.1812 ppm):
                         Standard Origin              Atomic Origin
 NLMO      Total    Paramagnetic  Diamagnetic   Paramagnetic  Diamagnetic
   85       0.2996        1.9882      -1.6886        -0.5057       0.8053
   87       0.0341       -1.1010       1.1352        -0.8022       0.8364
   89       0.5272       -0.6828       1.2099        -0.3581       0.8852
   98       0.1325       -0.9457       1.0782        -0.5285       0.6610
  101       0.0538       -0.9914       1.0452        -0.4973       0.5511
  110       0.8744        1.0959      -0.2215         0.1452       0.7293
  111       2.0811       -0.3059       2.3870         0.1579       1.9232
  112      25.4369        0.1053      25.3316         0.5145      24.9224
  118       0.7233       -1.3718       2.0951        -0.1087       0.8320
  120       1.3402       -0.5889       1.9292         0.4905       0.8498
  121      -0.2654       -3.1305       2.8652        -1.3051       1.0398
  123       0.2743       -1.2417       1.5160        -0.4822       0.7566
  191      -0.6508        1.4443      -2.0951         0.3172      -0.9680
  195      -0.1588        1.2876      -1.4464         0.8609      -1.0196
 Sum       30.7026       -4.4383      35.1409        -2.1018      32.8044

 Contributions to Isotropic shielding for atom  100 (    30.6584 ppm):
                         Standard Origin              Atomic Origin
 NLMO      Total    Paramagnetic  Diamagnetic   Paramagnetic  Diamagnetic
   89       0.9074       -0.0978       1.0052         0.8937       0.0137
  100      -0.2164        1.9921      -2.2085        -0.9836       0.7671
  101       0.1555       -1.2528       1.4083        -0.8665       1.0220
  103      -0.0465       -1.6863       1.6398        -0.8725       0.8260
  104       0.2356       -0.8130       1.0486        -0.3767       0.6123
  110       1.1532       -0.3407       1.4938         0.1795       0.9737
  112       0.1450       -0.1348       0.2798        -0.8889       1.0339
  113      25.6704        0.5719      25.0985         0.8349      24.8356
  114       1.9267       -0.2558       2.1825         0.2321       1.6946
  195       0.0175        1.1927      -1.1752         0.8380      -0.8205
 Sum       29.9484       -0.8245      30.7729        -1.0101      30.9585

 Contributions to Isotropic shielding for atom  101 (    31.2269 ppm):
                         Standard Origin              Atomic Origin
 NLMO      Total    Paramagnetic  Diamagnetic   Paramagnetic  Diamagnetic
   71       0.0908       -0.6583       0.7490        -1.0476       1.1383
   84       0.1634       -0.9270       1.0904        -0.6525       0.8159
   89       1.0668       -0.7972       1.8640         0.1637       0.9031
   90      -0.0743       -1.0640       0.9897        -0.7961       0.7218
   99       0.5918       -0.5229       1.1147        -0.1159       0.7078
  100       0.1857        1.6039      -1.4182        -0.2527       0.4383
  103       0.1503       -1.0927       1.2430        -0.5822       0.7325
  104       0.0230       -1.7099       1.7329        -0.7792       0.8022
  110       1.2350       -1.0565       2.2915         0.4043       0.8307
  113       1.6651       -0.1748       1.8399        -0.1736       1.8387
  114      26.2372        0.5933      25.6440         0.6127      25.6245
 Sum       31.3348       -5.8061      37.1408        -3.2191      34.5539

 Contributions to Isotropic shielding for atom  102 (    29.7653 ppm):
                         Standard Origin              Atomic Origin
 NLMO      Total    Paramagnetic  Diamagnetic   Paramagnetic  Diamagnetic
   89      -0.6545        0.4129      -1.0674        -1.5535       0.8989
   97      -0.2007        0.7512      -0.9519        -1.0251       0.8244
   98       1.4197       -0.2759       1.6956         0.5133       0.9064
  106      -0.2489       -1.2455       0.9965        -0.8125       0.5636
  115       1.4197       -0.3878       1.8076         0.5488       0.8710
  116      25.2679       -0.0087      25.2766         0.6289      24.6389
  117       0.9661        4.0991      -3.1330        -0.9532       1.9193
  118      -0.5037        0.6192      -1.1229        -1.4552       0.9515
  119       0.3055        1.2972      -0.9917        -0.2083       0.5138
  122       0.6662       -0.8714       1.5376        -0.5428       1.2090
  193      -1.0550        0.4834      -1.5384         0.3549      -1.4099
 Sum       27.3822        4.8736      22.5086        -4.5047      31.8869

 Contributions to Isotropic shielding for atom  103 (    31.7032 ppm):
                         Standard Origin              Atomic Origin
 NLMO      Total    Paramagnetic  Diamagnetic   Paramagnetic  Diamagnetic
   86      -0.1192        0.4535      -0.5727        -1.0260       0.9068
   94      -0.3389        1.2687      -1.6076        -1.3043       0.9654
   97      -0.2517        1.6007      -1.8524        -0.8597       0.6079
   98       0.7611        2.2507      -1.4896        -0.2184       0.9795
  108      -0.0309       -1.3950       1.3642        -0.8243       0.7934
  115       0.8106        2.7498      -1.9392        -0.2957       1.1063
  116       1.8364        4.0787      -2.2423        -0.2069       2.0432
  117      26.9880       -0.8425      27.8304         0.8891      26.0988
  119      -0.2404        0.9386      -1.1790        -1.3804       1.1400
  122       0.1743       -0.3015       0.4758        -0.9433       1.1176
 Sum       29.5892       10.8015      18.7877        -6.1698      35.7591

 Contributions to Isotropic shielding for atom  104 (    31.3331 ppm):
                         Standard Origin              Atomic Origin
 NLMO      Total    Paramagnetic  Diamagnetic   Paramagnetic  Diamagnetic
   81      -0.5808        1.1340      -1.7148        -1.2781       0.6973
   82      -0.1531        0.5243      -0.6774        -1.1226       0.9695
   86      -0.5056        1.7160      -2.2216        -1.6233       1.1177
   87       1.5966        1.0497       0.5469         0.6718       0.9248
   93      -0.0756       -1.6683       1.5927        -0.8431       0.7675
  115       0.5519        4.7627      -4.2107        -0.7167       1.2687
  117      -0.0560       -1.0490       0.9930        -1.2042       1.1482
  118       0.8817        4.1889      -3.3072        -0.2311       1.1128
  119      26.2461       -0.8844      27.1305         0.5395      25.7066
  122      -0.3924        0.0396      -0.4320        -1.7341       1.3416
  128      -0.2294       -1.6277       1.3983        -0.7048       0.4754
 Sum       27.2834        8.1857      19.0977        -8.2466      35.5300

 Contributions to Isotropic shielding for atom  105 (    30.5947 ppm):
                         Standard Origin              Atomic Origin
 NLMO      Total    Paramagnetic  Diamagnetic   Paramagnetic  Diamagnetic
  120      -0.4867        0.0640      -0.5507        -1.1155       0.6288
  121       0.0142        0.6712      -0.6570        -1.0296       1.0438
  123       0.3768        3.5523      -3.1755        -1.7112       2.0881
  124      26.1900        0.3861      25.8039         0.9031      25.2869
  125       1.7578        0.4068       1.3510        -0.2422       2.0000
  126       0.9475        3.3777      -2.4302        -1.0262       1.9736
  193       0.5843       -1.0397       1.6240         1.0528      -0.4685
 Sum       29.3839        7.4185      21.9654        -3.1689      32.5527

 Contributions to Isotropic shielding for atom  106 (    30.5195 ppm):
                         Standard Origin              Atomic Origin
 NLMO      Total    Paramagnetic  Diamagnetic   Paramagnetic  Diamagnetic
  120      -0.5855        0.2584      -0.8439        -1.4904       0.9050
  121      -0.1571        0.6670      -0.8241        -1.7007       1.5436
  123       2.5599       -4.8903       7.4502         1.1568       1.4031
  124       1.5239        0.6012       0.9227        -0.5120       2.0360
  125      25.7913        1.0340      24.7574         0.6894      25.1020
  126       1.6452       -0.3865       2.0317        -0.2184       1.8637
  193       0.6030        1.1151      -0.5121         0.6454      -0.0423
  194       0.1765       -1.0326       1.2092        -0.3828       0.5594
 Sum       31.5575       -2.6336      34.1911        -1.8129      33.3703

 Contributions to Isotropic shielding for atom  107 (    30.5658 ppm):
                         Standard Origin              Atomic Origin
 NLMO      Total    Paramagnetic  Diamagnetic   Paramagnetic  Diamagnetic
  120      -1.0853        0.5718      -1.6571        -1.9744       0.8891
  121      -0.2847        1.5918      -1.8765        -1.8443       1.5596
  122      -0.7339        0.2497      -0.9836        -1.5078       0.7739
  123       0.9454        0.6130       0.3324        -0.5603       1.5057
  124       1.1991        3.5664      -2.3673        -0.8318       2.0309
  125       1.9646       -1.0500       3.0146         0.0939       1.8707
  126      26.3280        0.5785      25.7496         0.9562      25.3719
  191       0.4052       -1.2327       1.6379         1.1723      -0.7671
  193       1.2731       -0.2683       1.5413         1.3217      -0.0486
 Sum       30.0114        4.6201      25.3913        -3.1745      33.1860

 Contributions to Isotropic shielding for atom  108 (    30.7820 ppm):
                         Standard Origin              Atomic Origin
 NLMO      Total    Paramagnetic  Diamagnetic   Paramagnetic  Diamagnetic
   75      -0.5111        0.4772      -0.9882        -1.2227       0.7116
   76      -0.6516        0.0901      -0.7417        -2.0104       1.3588
   82       1.9212       -2.1332       4.0544         0.7183       1.2029
  127      25.8364        0.3857      25.4508         0.5414      25.2950
  128       1.6452        2.2522      -0.6070        -0.3237       1.9689
  129       1.4280        1.9127      -0.4847        -0.3710       1.7990
 Sum       29.6681        2.9846      26.6835        -2.6681      32.3362

 Contributions to Isotropic shielding for atom  109 (    31.4698 ppm):
                         Standard Origin              Atomic Origin
 NLMO      Total    Paramagnetic  Diamagnetic   Paramagnetic  Diamagnetic
   76      -0.4550        0.0389      -0.4939        -1.2927       0.8378
   81      -0.6049        1.5794      -2.1843        -1.3277       0.7228
   82       1.1251       -0.5473       1.6724        -0.0745       1.1996
   87      -0.1616        0.7067      -0.8683        -1.0588       0.8972
   93      -0.0774       -1.0845       1.0071        -0.6779       0.6005
  119      -0.1831       -1.6479       1.4648        -0.7101       0.5270
  121      -0.1178        0.1136      -0.2313        -1.1814       1.0636
  127       1.8550        2.1863      -0.3313        -0.1354       1.9904
  128      26.0264        0.1517      25.8747         0.5967      25.4297
  129       1.1236        2.8804      -1.7568        -0.6884       1.8120
  190       1.2889        0.0936       1.1952         1.2686       0.0203
 Sum       29.8193        4.4710      25.3483        -5.2817      35.1010

 Contributions to Isotropic shielding for atom  110 (    31.9307 ppm):
                         Standard Origin              Atomic Origin
 NLMO      Total    Paramagnetic  Diamagnetic   Paramagnetic  Diamagnetic
   75      -0.3305        0.7402      -1.0707        -0.9226       0.5921
   76      -1.0094        0.3505      -1.3600        -2.1718       1.1624
   79      -0.3531        1.0670      -1.4202        -0.8848       0.5317
   81      -0.4358        0.8634      -1.2992        -0.6798       0.2440
   82       1.3596       -1.0409       2.4006         0.5791       0.7805
   86      -0.0536        0.0223      -0.0759        -1.1202       1.0666
   93      -0.1336       -1.0966       0.9630        -0.9393       0.8057
  127       1.9052        2.0853      -0.1801         0.0036       1.9016
  128       1.7773        3.5450      -1.7677        -0.1252       1.9025
  129      26.7114        0.4709      26.2405         0.9823      25.7291
 Sum       29.4375        7.0072      22.4303        -5.2786      34.7161
 
 1\1\GINC-PCSN02\SP\RHF\STO-3G\C45H56N4O5\ABENIDD\30-May-2024\0\\# nmr=
 giao hf/sto-3g pop=nbo geom=connectivity\\Pleiokomenine_C_2\\0,1\C,0,0
 .,0.,0.\C,0,1.4015,0.,0.\C,0,2.0816,1.2365,0.\C,0,1.3865,2.4552,-0.039
 \C,0,0.0036,2.4394,-0.086\C,0,-0.6724,1.2105,-0.0482\N,0,-0.8896,3.539
 8,-0.1849\C,0,-2.1572,1.4663,-0.0152\C,0,-2.1319,2.8942,-0.6881\C,0,-3
 .1167,0.5545,-0.7949\C,0,-2.024,2.717,-2.2661\C,0,-3.2394,1.9682,-2.82
 72\C,0,-4.0865,1.4367,-1.6544\N,0,-3.7434,-0.2892,0.2286\C,0,-4.9412,-
 0.9925,-0.2122\C,0,-5.9411,-0.1471,-0.9998\C,0,-5.2599,0.5834,-2.1564\
 C,0,-2.5922,1.3145,1.4624\C,0,-3.8817,0.5032,1.4413\C,0,-4.6102,2.7127
 ,-0.9098\C,0,-3.4522,3.6571,-0.4835\C,0,-3.6864,4.2734,0.8842\O,0,-4.4
 946,3.8677,1.7104\O,0,-2.9278,5.3941,1.0437\C,0,-3.0663,6.0179,2.3199\
 C,0,-0.3684,4.7511,-0.7993\C,0,2.1818,-1.2978,0.0668\C,0,1.6905,-2.368
 1,-0.8875\C,0,0.7439,-3.3099,-0.4578\C,0,2.1103,-2.364,-2.2359\C,0,1.6
 088,-3.2906,-3.1595\C,0,0.6736,-4.2137,-2.7327\C,0,0.231,-4.1961,-1.39
 \N,0,0.0518,-5.2521,-3.477\C,0,-0.9155,-5.1766,-1.2771\C,0,-0.4206,-6.
 1535,-2.4014\C,0,-1.1734,-6.0082,-0.0341\C,0,0.8617,-6.9753,-1.8668\C,
 0,0.5881,-7.6475,-0.5179\C,0,-0.9073,-7.5128,-0.1882\N,0,-2.6247,-5.75
 43,0.3428\C,0,-2.8154,-6.2034,1.7534\C,0,-2.5694,-7.7248,1.8152\C,0,-1
 .246,-8.189,1.1629\C,0,-2.1782,-4.2687,-1.3805\C,0,-2.7723,-4.3089,0.0
 386\C,0,-1.649,-8.1281,-1.4242\C,0,-1.4291,-7.2779,-2.7307\C,0,-2.7121
 ,-6.8672,-3.4385\O,0,-2.8592,-5.862,-4.1216\O,0,-3.6439,-7.8627,-3.353
 3\C,0,-4.9009,-7.5319,-3.9405\C,0,0.7187,-5.7527,-4.662\O,0,-3.5585,-6
 .4011,-0.4295\H,0,-0.5713,-0.9214,0.042\H,0,3.169,1.2591,0.0293\H,0,1.
 9395,3.3873,-0.0398\H,0,-2.562,-0.1152,-1.4665\H,0,-1.9515,3.6945,-2.7
 601\H,0,-1.112,2.1791,-2.5535\H,0,-3.8325,2.6388,-3.4617\H,0,-2.9008,1
 .1513,-3.4766\H,0,-4.619,-1.8208,-0.8562\H,0,-5.4425,-1.4647,0.6414\H,
 0,-6.7277,-0.798,-1.3993\H,0,-6.439,0.5661,-0.3341\H,0,-4.8981,-0.1597
 ,-2.879\H,0,-5.9934,1.2027,-2.6862\H,0,-2.6898,2.2546,2.0036\H,0,-1.85
 5,0.7331,2.0354\H,0,-3.9516,-0.1368,2.3275\H,0,-4.7608,1.1494,1.4376\H
 ,0,-5.2529,2.4462,-0.0706\H,0,-5.2695,3.2752,-1.5866\H,0,-3.4835,4.515
 5,-1.1722\H,0,-2.3792,6.8677,2.3577\H,0,-2.7983,5.3213,3.1206\H,0,-4.0
 865,6.3905,2.4537\H,0,0.1116,4.5504,-1.7638\H,0,0.3612,5.231,-0.1382\H
 ,0,-1.1703,5.476,-0.9692\H,0,2.1465,-1.6724,1.098\H,0,3.243,-1.1124,-0
 .1453\H,0,0.3752,-3.2936,0.5623\H,0,2.8227,-1.6157,-2.5783\H,0,1.9437,
 -3.2614,-4.1897\H,0,-0.5832,-5.603,0.8014\H,0,1.7623,-6.3566,-1.7709\H
 ,0,1.1348,-7.7425,-2.6046\H,0,0.8952,-8.6999,-0.5546\H,0,1.2017,-7.174
 2,0.2594\H,0,-3.8428,-5.9491,2.0345\H,0,-2.1141,-5.644,2.381\H,0,-3.39
 69,-8.244,1.3155\H,0,-2.5926,-8.0519,2.8611\H,0,-1.258,-9.2797,1.0493\
 H,0,-0.4426,-7.9664,1.8785\H,0,-1.9889,-3.2302,-1.6769\H,0,-2.9109,-4.
 6608,-2.0848\H,0,-3.8315,-4.0414,0.0842\H,0,-2.1877,-3.7444,0.7718\H,0
 ,-2.7018,-8.3213,-1.2095\H,0,-1.2381,-9.1321,-1.6071\H,0,-0.9615,-7.94
 99,-3.4666\H,0,-5.6001,-8.3443,-3.7239\H,0,-5.3011,-6.6091,-3.5083\H,0
 ,-4.8009,-7.4412,-5.0264\H,0,0.7813,-4.9733,-5.4289\H,0,0.1518,-6.5807
 ,-5.0988\H,0,1.7306,-6.11,-4.4427\\Version=ES64L-G16RevB.01\State=1-A\
 HF=-2300.2024826\RMSD=3.851e-09\Dipole=0.8348431,0.5126052,0.406753\Qu
 adrupole=-5.4688309,7.7856746,-2.3168438,-10.0529466,0.0830717,-5.7672
 962\PG=C01 [X(C45H56N4O5)]\\@


 THESE ARE THE TIMES THAT TRY MENS SOULS.
 THE SUMMER SOLDIER AND THE SUNSHINE PATRIOT WILL IN THIS CRISIS,
 SHRINK FROM THE SERVICE OF HIS COUNTRY.  BUT HE THAT STANDS NOW,
 DESERVES THE LOVE AND THANKS OF MAN AND WOMAN.
 TYRANNY, LIKE HELL, IS NOT EASILY CONQUERED,
 YET WE HAVE THIS CONSOLATION WITH US,
 THAT THE HARDER THE CONFLICT, THE MORE GLORIOUS THE TRIUMPH.
 WHAT WE OBTAIN TOO CHEAP, WE ESTEEM TOO LIGHTLY, 
 'TIS DEARNESS ONLY THAT GIVES EVERYTHING ITS VALUE.

                                              -- TOM PAINE
 Job cpu time:       0 days  0 hours 11 minutes 44.3 seconds.
 Elapsed time:       0 days  0 hours  1 minutes 59.3 seconds.
 File lengths (MBytes):  RWF=     67 Int=      0 D2E=      0 Chk=     10 Scr=      1
 Normal termination of Gaussian 16 at Thu May 30 10:07:06 2024.
