 Entering Gaussian System, Link 0=g16
 Input=2_pleiokomenine_2a_c_9.gjf
 Output=2_pleiokomenine_2a_c_9.log
 Initial command:
 /opt/gaussian/g16/l1.exe "/data/abenidd/Elvis/pleiokomenine_C/NMR_HF/2a/2_pleiokomenine_2a_c_9/Gau-29087.inp" -scrdir="/data/abenidd/Elvis/pleiokomenine_C/NMR_HF/2a/2_pleiokomenine_2a_c_9/"
 Entering Link 1 = /opt/gaussian/g16/l1.exe PID=     29089.
  
 Copyright (c) 1988-2017, Gaussian, Inc.  All Rights Reserved.
  
 This is part of the Gaussian(R) 16 program.  It is based on
 the Gaussian(R) 09 system (copyright 2009, Gaussian, Inc.),
 the Gaussian(R) 03 system (copyright 2003, Gaussian, Inc.),
 the Gaussian(R) 98 system (copyright 1998, Gaussian, Inc.),
 the Gaussian(R) 94 system (copyright 1995, Gaussian, Inc.),
 the Gaussian 92(TM) system (copyright 1992, Gaussian, Inc.),
 the Gaussian 90(TM) system (copyright 1990, Gaussian, Inc.),
 the Gaussian 88(TM) system (copyright 1988, Gaussian, Inc.),
 the Gaussian 86(TM) system (copyright 1986, Carnegie Mellon
 University), and the Gaussian 82(TM) system (copyright 1983,
 Carnegie Mellon University). Gaussian is a federally registered
 trademark of Gaussian, Inc.
  
 This software contains proprietary and confidential information,
 including trade secrets, belonging to Gaussian, Inc.
  
 This software is provided under written license and may be
 used, copied, transmitted, or stored only in accord with that
 written license.
  
 The following legend is applicable only to US Government
 contracts under FAR:
  
                    RESTRICTED RIGHTS LEGEND
  
 Use, reproduction and disclosure by the US Government is
 subject to restrictions as set forth in subparagraphs (a)
 and (c) of the Commercial Computer Software - Restricted
 Rights clause in FAR 52.227-19.
  
 Gaussian, Inc.
 340 Quinnipiac St., Bldg. 40, Wallingford CT 06492
  
  
 ---------------------------------------------------------------
 Warning -- This program may not be used in any manner that
 competes with the business of Gaussian, Inc. or will provide
 assistance to any competitor of Gaussian, Inc.  The licensee
 of this program is prohibited from giving any competitor of
 Gaussian, Inc. access to this program.  By using this program,
 the user acknowledges that Gaussian, Inc. is engaged in the
 business of creating and licensing software in the field of
 computational chemistry and represents and warrants to the
 licensee that it is not a competitor of Gaussian, Inc. and that
 it will not use this program in any manner prohibited above.
 ---------------------------------------------------------------
  

 Cite this work as:
 Gaussian 16, Revision B.01,
 M. J. Frisch, G. W. Trucks, H. B. Schlegel, G. E. Scuseria, 
 M. A. Robb, J. R. Cheeseman, G. Scalmani, V. Barone, 
 G. A. Petersson, H. Nakatsuji, X. Li, M. Caricato, A. V. Marenich, 
 J. Bloino, B. G. Janesko, R. Gomperts, B. Mennucci, H. P. Hratchian, 
 J. V. Ortiz, A. F. Izmaylov, J. L. Sonnenberg, D. Williams-Young, 
 F. Ding, F. Lipparini, F. Egidi, J. Goings, B. Peng, A. Petrone, 
 T. Henderson, D. Ranasinghe, V. G. Zakrzewski, J. Gao, N. Rega, 
 G. Zheng, W. Liang, M. Hada, M. Ehara, K. Toyota, R. Fukuda, 
 J. Hasegawa, M. Ishida, T. Nakajima, Y. Honda, O. Kitao, H. Nakai, 
 T. Vreven, K. Throssell, J. A. Montgomery, Jr., J. E. Peralta, 
 F. Ogliaro, M. J. Bearpark, J. J. Heyd, E. N. Brothers, K. N. Kudin, 
 V. N. Staroverov, T. A. Keith, R. Kobayashi, J. Normand, 
 K. Raghavachari, A. P. Rendell, J. C. Burant, S. S. Iyengar, 
 J. Tomasi, M. Cossi, J. M. Millam, M. Klene, C. Adamo, R. Cammi, 
 J. W. Ochterski, R. L. Martin, K. Morokuma, O. Farkas, 
 J. B. Foresman, and D. J. Fox, Gaussian, Inc., Wallingford CT, 2016.
 
 ******************************************
 Gaussian 16:  ES64L-G16RevB.01 20-Dec-2017
                30-May-2024 
 ******************************************
 %nprocshared=8
 Will use up to    8 processors via shared memory.
 ----------------------------------------------
 # nmr=giao hf/sto-3g pop=nbo geom=connectivity
 ----------------------------------------------
 1/38=1,57=2,172=1/1;
 2/12=2,17=6,18=5,40=1/2;
 3/6=3,11=9,25=1,30=1/1,2,3,8;
 4//1;
 5/5=2,38=5/2;
 8/6=1,10=90,11=11/1;
 10/13=100,45=16/2;
 6/7=2,8=2,9=2,10=2,28=1,40=1,64=1/1,7;
 99/9=1/99;
 -----------------
 Pleiokomenine_C_2
 -----------------
 Symbolic Z-matrix:
 Charge =  0 Multiplicity = 1
 C                     0.        0.        0. 
 C                     1.4015    0.        0. 
 C                     2.0953    1.2284    0. 
 C                     1.4106    2.4507   -0.0069 
 C                     0.0268    2.4437   -0.0052 
 C                    -0.6615    1.2182    0.0221 
 N                    -0.8561    3.5564   -0.0189 
 C                    -2.1357    1.4967    0.1757 
 C                    -2.1386    2.9448   -0.4524 
 C                    -3.1739    0.627    -0.5457 
 C                    -2.15      2.8141   -2.0372 
 C                    -3.4157    2.0973   -2.5265 
 C                    -4.1857    1.5488   -1.3086 
 N                    -3.7413   -0.2224    0.5057 
 C                    -4.9837   -0.8937    0.1481 
 C                    -6.0193   -0.0158   -0.5543 
 C                    -5.4082    0.7274   -1.7423 
 C                    -2.4524    1.3106    1.6812 
 C                    -3.765     0.5411    1.7432 
 C                    -4.6301    2.8125   -0.4952 
 C                    -3.4262    3.7218   -0.1272 
 C                    -3.5446    4.2973    1.2729 
 O                    -4.2715    3.8584    2.1556 
 O                    -2.782     5.4197    1.3971 
 C                    -2.8158    6.0103    2.6962 
 C                    -0.3574    4.7785   -0.6315 
 C                     2.1623   -1.3065    0.0993 
 C                     2.5997   -1.6526    1.5096 
 C                     1.6913   -1.5861    2.5763 
 C                     3.9181   -2.0953    1.7552 
 C                     4.3521   -2.4272    3.0474 
 C                     3.4636   -2.3079    4.0992 
 C                     2.1342   -1.9065    3.8481 
 N                     3.7006   -2.501     5.4888 
 C                     1.3717   -1.9814    5.1514 
 C                     2.5984   -1.704     6.0876 
 C                     0.2838   -0.987     5.52 
 C                     3.0186   -0.1468    5.9672 
 C                     1.8305    0.7891    6.204 
 C                     0.6278   -0.0413    6.6802 
 N                    -0.9441   -1.8192    5.8483 
 C                    -2.1315   -0.9161    5.8115 
 C                    -1.9697    0.1377    6.9258 
 C                    -0.6041    0.8637    6.9314 
 C                     0.6146   -3.3361    5.0517 
 C                    -0.8527   -2.9113    4.8493 
 C                     1.1449   -0.8077    7.9471 
 C                     2.2747   -1.8441    7.593 
 C                     1.9922   -3.2122    8.1928 
 O                     1.4639   -3.3721    9.2891 
 O                     2.541    -4.2225    7.4704 
 C                     2.3311   -5.5213    8.0222 
 C                     5.0644   -2.393     5.9717 
 O                    -0.9269   -2.4351    7.0732 
 H                    -0.5617   -0.9292    0.0416 
 H                     3.1834    1.235     0.0267 
 H                     1.9709    3.3784    0.0032 
 H                    -2.6884   -0.0397   -1.2714 
 H                    -1.2696    2.2737   -2.407 
 H                    -2.0997    3.805    -2.5067 
 H                    -4.0415    2.7926   -3.1001 
 H                    -3.1384    1.292    -3.218 
 H                    -4.7288   -1.7228   -0.5248 
 H                    -5.4325   -1.364     1.0316 
 H                    -6.8438   -0.6451   -0.9096 
 H                    -6.4566    0.6924    0.1578 
 H                    -5.1134   -0.0061   -2.504 
 H                    -6.1656    1.3711   -2.2051 
 H                    -1.691     0.687     2.1731 
 H                    -2.4704    2.2353    2.2567 
 H                    -3.786    -0.1188    2.6172 
 H                    -4.622     1.2113    1.8218 
 H                    -5.2186    2.5362    0.3798 
 H                    -5.3231    3.4056   -1.1094 
 H                    -3.4921    4.602    -0.7853 
 H                    -2.1367    6.8673    2.6962 
 H                    -3.8243    6.3667    2.9273 
 H                    -2.4724    5.2972    3.4524 
 H                     0.0586    4.5982   -1.6292 
 H                     0.4182    5.2315   -0.0047 
 H                    -1.1584    5.5173   -0.7315 
 H                     1.5495   -2.1307   -0.2878 
 H                     3.034    -1.2455   -0.5652 
 H                     0.6603   -1.2933    2.4124 
 H                     4.6253   -2.1797    0.9323 
 H                     5.3731   -2.7544    3.2056 
 H                     0.0066   -0.4047    4.6284 
 H                     3.4707    0.1051    5.0001 
 H                     3.8047    0.0759    6.702 
 H                     2.0995    1.5582    6.9385 
 H                     1.5925    1.3214    5.274 
 H                    -3.0155   -1.5418    5.9731 
 H                    -2.1787   -0.4642    4.8155 
 H                    -2.7738    0.8779    6.8418 
 H                    -2.1026   -0.3462    7.9016 
 H                    -0.6474    1.6248    6.1402 
 H                    -0.4862    1.4124    7.8735 
 H                     0.933    -3.9952    4.2358 
 H                     0.6944   -3.9177    5.9702 
 H                    -1.054    -2.4865    3.8608 
 H                    -1.5771   -3.6912    5.1009 
 H                     0.3294   -1.2567    8.5185 
 H                     1.5724   -0.0722    8.6445 
 H                     3.1721   -1.5364    8.1519 
 H                     2.749    -6.2552    7.3276 
 H                     1.2617   -5.7254    8.1367 
 H                     2.8504   -5.6168    8.9807 
 H                     5.0924   -2.4928    7.0613 
 H                     5.6819   -3.2008    5.5644 
 H                     5.5221   -1.4344    5.7046 
 
 Stoichiometry    C45H56N4O5
 Framework group  C1[X(C45H56N4O5)]
 Deg. of freedom   324
 Full point group                 C1      NOp   1
 Largest Abelian subgroup         C1      NOp   1
 Largest concise Abelian subgroup C1      NOp   1
                         Standard orientation:                         
 ---------------------------------------------------------------------
 Center     Atomic      Atomic             Coordinates (Angstroms)
 Number     Number       Type             X           Y           Z
 ---------------------------------------------------------------------
      1          6           0       -1.778857    2.176273   -0.983363
      2          6           0       -1.044035    3.258874   -0.481153
      3          6           0       -1.299618    3.724172    0.825943
      4          6           0       -2.279623    3.129350    1.631336
      5          6           0       -3.000469    2.059750    1.130048
      6          6           0       -2.724731    1.581267   -0.162769
      7          7           0       -4.033799    1.322430    1.767535
      8          6           0       -3.532685    0.329350   -0.395863
      9          6           0       -4.695337    0.641089    0.625201
     10          6           0       -4.133563    0.033646   -1.776500
     11          6           0       -5.722926    1.642116   -0.060954
     12          6           0       -6.360906    1.015093   -1.307965
     13          6           0       -5.652337   -0.318430   -1.618899
     14          7           0       -3.281312   -1.020771   -2.333939
     15          6           0       -3.839642   -1.715706   -3.486073
     16          6           0       -5.307244   -2.121907   -3.353089
     17          6           0       -6.176774   -0.941233   -2.920583
     18          6           0       -2.571811   -0.856750   -0.128751
     19          6           0       -2.829501   -1.865645   -1.239886
     20          6           0       -5.964323   -1.248815   -0.396975
     21          6           0       -5.539041   -0.603882    0.950178
     22          6           0       -4.930515   -1.613935    1.906728
     23          8           0       -4.484627   -2.708468    1.585234
     24          8           0       -5.011353   -1.167948    3.191768
     25          6           0       -4.435392   -2.049642    4.155353
     26          6           0       -4.808872    2.024826    2.779172
     27          6           0        0.081729    3.858882   -1.298628
     28          6           0        1.453329    3.324703   -0.933368
     29          6           0        1.675500    1.944536   -0.818295
     30          6           0        2.536321    4.213236   -0.754151
     31          6           0        3.817937    3.750307   -0.420310
     32          6           0        4.013696    2.391900   -0.257963
     33          6           0        2.941986    1.500723   -0.478686
     34          7           0        5.188878    1.707214    0.159884
     35          6           0        3.474304    0.091749   -0.348157
     36          6           0        4.620046    0.431267    0.666839
     37          6           0        2.655475   -1.038911    0.251303
     38          6           0        3.972613    0.742462    2.115951
     39          6           0        3.040301   -0.378877    2.581739
     40          6           0        3.155168   -1.561340    1.606339
     41          7           0        2.656546   -2.147196   -0.787821
     42          6           0        1.553390   -3.093068   -0.448355
     43          6           0        1.871553   -3.733425    0.918046
     44          6           0        2.225352   -2.723843    2.034980
     45          6           0        3.691962   -0.352127   -1.822589
     46          6           0        2.569570   -1.381973   -2.055064
     47          6           0        4.682065   -1.919092    1.586470
     48          6           0        5.553988   -0.762822    0.971044
     49          6           0        6.507246   -1.281722   -0.093524
     50          8           0        7.063168   -2.373980   -0.026694
     51          8           0        6.808654   -0.342818   -1.026991
     52          6           0        7.732098   -0.779264   -2.023077
     53          6           0        6.180853    2.449070    0.915160
     54          8           0        3.816638   -2.873191   -0.872233
     55          1           0       -1.576321    1.769503   -1.970362
     56          1           0       -0.714121    4.547418    1.231131
     57          1           0       -2.446660    3.502428    2.635117
     58          1           0       -4.040850    0.905984   -2.437764
     59          1           0       -5.242619    2.587144   -0.343999
     60          1           0       -6.518334    1.920931    0.642204
     61          1           0       -7.433196    0.854485   -1.139196
     62          1           0       -6.284004    1.712945   -2.150974
     63          1           0       -3.749722   -1.045553   -4.350934
     64          1           0       -3.231562   -2.594119   -3.734682
     65          1           0       -5.666062   -2.497902   -4.318456
     66          1           0       -5.404942   -2.950797   -2.643680
     67          1           0       -6.175071   -0.189593   -3.720677
     68          1           0       -7.216016   -1.270606   -2.803621
     69          1           0       -1.520638   -0.543849   -0.216504
     70          1           0       -2.652560   -1.287804    0.868379
     71          1           0       -1.908045   -2.396689   -1.501985
     72          1           0       -3.562808   -2.615890   -0.941244
     73          1           0       -5.533136   -2.240919   -0.531533
     74          1           0       -7.048179   -1.429777   -0.354937
     75          1           0       -6.468979   -0.289179    1.448542
     76          1           0       -4.511425   -1.574343    5.137155
     77          1           0       -4.985270   -2.995320    4.184109
     78          1           0       -3.376890   -2.221639    3.935663
     79          1           0       -5.184487    2.987538    2.414387
     80          1           0       -4.200497    2.201473    3.672658
     81          1           0       -5.669964    1.426851    3.092817
     82          1           0       -0.089647    3.677736   -2.367502
     83          1           0        0.052026    4.948994   -1.172470
     84          1           0        0.874837    1.234955   -0.994335
     85          1           0        2.384983    5.284821   -0.869144
     86          1           0        4.626790    4.457747   -0.279543
     87          1           0        1.604718   -0.722621    0.333356
     88          1           0        3.419012    1.688855    2.147514
     89          1           0        4.776720    0.872157    2.853563
     90          1           0        3.297590   -0.679849    3.604766
     91          1           0        2.008955   -0.005145    2.620957
     92          1           0        1.516264   -3.842148   -1.246210
     93          1           0        0.617330   -2.525585   -0.433760
     94          1           0        1.019110   -4.343994    1.237536
     95          1           0        2.715457   -4.425411    0.804083
     96          1           0        1.275977   -2.300654    2.390992
     97          1           0        2.656999   -3.260158    2.888544
     98          1           0        3.631334    0.447744   -2.569593
     99          1           0        4.657326   -0.837954   -1.965109
    100          1           0        1.571524   -0.936711   -2.116345
    101          1           0        2.755629   -2.055823   -2.896260
    102          1           0        4.872974   -2.884600    1.112668
    103          1           0        5.013939   -2.072233    2.624010
    104          1           0        6.252890   -0.440791    1.758577
    105          1           0        7.844591    0.025050   -2.755294
    106          1           0        7.352876   -1.666012   -2.541009
    107          1           0        8.710258   -0.978845   -1.574875
    108          1           0        6.993550    1.787312    1.230713
    109          1           0        6.632407    3.230111    0.294022
    110          1           0        5.754224    2.916433    1.809199
 ---------------------------------------------------------------------
 Rotational constants (GHZ):           0.0958892           0.0319827           0.0298830
 Standard basis: STO-3G (5D, 7F)
 There are   326 symmetry adapted cartesian basis functions of A   symmetry.
 There are   326 symmetry adapted basis functions of A   symmetry.
   326 basis functions,   978 primitive gaussians,   326 cartesian basis functions
   197 alpha electrons      197 beta electrons
       nuclear repulsion energy      8122.2819909391 Hartrees.
 NAtoms=  110 NActive=  110 NUniq=  110 SFac= 1.00D+00 NAtFMM=   60 NAOKFM=T Big=T
 Integral buffers will be    131072 words long.
 Raffenetti 1 integral format.
 Two-electron integral symmetry is turned on.
 One-electron integrals computed using PRISM.
 NBasis=   326 RedAO= T EigKep=  1.72D-01  NBF=   326
 NBsUse=   326 1.00D-06 EigRej= -1.00D+00 NBFU=   326
 ExpMin= 1.69D-01 ExpMax= 1.31D+02 ExpMxC= 1.31D+02 IAcc=3 IRadAn=         5 AccDes= 0.00D+00
 Harris functional with IExCor=  205 and IRadAn=       5 diagonalized for initial guess.
 HarFok:  IExCor=  205 AccDes= 0.00D+00 IRadAn=         5 IDoV= 1 UseB2=F ITyADJ=14
 ICtDFT=  3500011 ScaDFX=  1.000000  1.000000  1.000000  1.000000
 FoFCou: FMM=F IPFlag=           0 FMFlag=      100000 FMFlg1=        2001
         NFxFlg=           0 DoJE=T BraDBF=F KetDBF=T FulRan=T
         wScrn=  0.000000 ICntrl=       500 IOpCl=  0 I1Cent=   200000004 NGrid=           0
         NMat0=    1 NMatS0=      1 NMatT0=    0 NMatD0=    1 NMtDS0=    0 NMtDT0=    0
 Petite list used in FoFCou.
 Requested convergence on RMS density matrix=1.00D-08 within 128 cycles.
 Requested convergence on MAX density matrix=1.00D-06.
 Requested convergence on             energy=1.00D-06.
 No special actions if energy rises.
 Integral accuracy reduced to 1.0D-05 until final iterations.
 Initial convergence to 1.0D-05 achieved.  Increase integral accuracy.
 SCF Done:  E(RHF) =  -2300.19899272     A.U. after   16 cycles
            NFock= 16  Conv=0.39D-08     -V/T= 2.0093
 Range of M.O.s used for correlation:     1   326
 NBasis=   326 NAE=   197 NBE=   197 NFC=     0 NFV=     0
 NROrb=    326 NOA=   197 NOB=   197 NVA=   129 NVB=   129
          Differentiating once with respect to magnetic field using GIAOs.
          Electric field/nuclear overlap derivatives assumed to be zero.
 FoFCou: FMM=F IPFlag=           0 FMFlag=      100000 FMFlg1=        2001
         NFxFlg=           0 DoJE=F BraDBF=F KetDBF=T FulRan=T
         wScrn=  0.000000 ICntrl=      6100 IOpCl=  0 I1Cent=           7 NGrid=         110
         NMat0=    1 NMatS0=      1 NMatT0=    0 NMatD0=    1 NMtDS0=    0 NMtDT0=    0
 Symmetry not used in FoFCou.
 FoFJK:  IHMeth= 1 ICntrl=    6127 DoSepK=F KAlg= 0 I1Cent=           0 FoldK=F
 IRaf=         1 NMat=       1 IRICut=       1 DoRegI=T DoRafI=F ISym2E= 0 IDoP0=0 IntGTp=1.
          There are     3 degrees of freedom in the 1st order CPHF.  IDoFFX=0 NUNeed=     3.
      3 vectors produced by pass  0 Test12= 8.47D-13 3.33D-08 XBig12= 1.85D+02 2.37D+00.
 AX will form     3 AO Fock derivatives at one time.
      3 vectors produced by pass  1 Test12= 8.47D-13 3.33D-08 XBig12= 8.82D-01 2.73D-01.
      3 vectors produced by pass  2 Test12= 8.47D-13 3.33D-08 XBig12= 1.83D-02 3.89D-02.
      3 vectors produced by pass  3 Test12= 8.47D-13 3.33D-08 XBig12= 3.67D-04 4.74D-03.
      3 vectors produced by pass  4 Test12= 8.47D-13 3.33D-08 XBig12= 1.35D-05 6.66D-04.
      3 vectors produced by pass  5 Test12= 8.47D-13 3.33D-08 XBig12= 2.79D-07 8.95D-05.
      3 vectors produced by pass  6 Test12= 8.47D-13 3.33D-08 XBig12= 1.26D-08 2.75D-05.
      3 vectors produced by pass  7 Test12= 8.47D-13 3.33D-08 XBig12= 3.93D-10 3.30D-06.
      3 vectors produced by pass  8 Test12= 8.47D-13 3.33D-08 XBig12= 6.13D-12 4.71D-07.
      2 vectors produced by pass  9 Test12= 8.47D-13 3.33D-08 XBig12= 1.19D-13 9.96D-08.
 InvSVY:  IOpt=1 It=  1 EMax= 3.55D-15
 Solved reduced A of dimension    29 with     3 vectors.
 Calculating GIAO nuclear magnetic shielding tensors.
 SCF GIAO Magnetic shielding tensor (ppm):
      1  C    Isotropic =   123.8445   Anisotropy =   149.5701
   XX=   164.2575   YX=   -39.8585   ZX=    49.0985
   XY=   -35.3760   YY=   143.7924   ZY=   -63.4288
   XZ=    37.1106   YZ=   -51.5554   ZZ=    63.4834
   Eigenvalues:    29.7314   118.2442   223.5579
      2  C    Isotropic =   119.0609   Anisotropy =   162.5556
   XX=   120.6605   YX=   -76.5263   ZX=    58.0023
   XY=   -69.6471   YY=   141.3258   ZY=   -27.3002
   XZ=    52.6348   YZ=   -19.2214   ZZ=    95.1964
   Eigenvalues:    39.0172    90.7342   227.4313
      3  C    Isotropic =   119.0901   Anisotropy =   157.1208
   XX=   131.6865   YX=   -89.6440   ZX=    15.1868
   XY=   -79.7107   YY=   114.6103   ZY=   -47.0168
   XZ=     6.5778   YZ=   -51.3977   ZZ=   110.9734
   Eigenvalues:    26.6745   106.7584   223.8373
      4  C    Isotropic =   133.6441   Anisotropy =   144.4465
   XX=   173.4815   YX=   -42.1363   ZX=    36.6970
   XY=   -47.7565   YY=   153.5478   ZY=   -43.1907
   XZ=    32.4799   YZ=   -49.7490   ZZ=    73.9031
   Eigenvalues:    50.8956   120.0950   229.9417
      5  C    Isotropic =   109.0819   Anisotropy =   128.5737
   XX=   122.9052   YX=   -51.4813   ZX=    45.6207
   XY=   -60.9181   YY=   117.1185   ZY=   -17.6765
   XZ=    54.4508   YZ=    -3.1946   ZZ=    87.2222
   Eigenvalues:    41.1792    91.2689   194.7977
      6  C    Isotropic =   117.2906   Anisotropy =   142.3766
   XX=   149.8369   YX=   -66.2562   ZX=    20.7340
   XY=   -69.0852   YY=   107.8554   ZY=   -30.1390
   XZ=    21.5339   YZ=   -41.1248   ZZ=    94.1795
   Eigenvalues:    50.3440    89.3194   212.2084
      7  N    Isotropic =   274.3486   Anisotropy =    82.2573
   XX=   309.5366   YX=    25.6057   ZX=   -12.3655
   XY=    43.0764   YY=   261.9214   ZY=   -12.9942
   XZ=    -5.2586   YZ=    -2.4214   ZZ=   251.5878
   Eigenvalues:   242.8934   250.9655   329.1868
      8  C    Isotropic =   195.8837   Anisotropy =    11.6207
   XX=   189.8405   YX=    -5.2071   ZX=    -1.5603
   XY=    -2.8235   YY=   195.4575   ZY=     6.5921
   XZ=     0.3037   YZ=    -1.0422   ZZ=   202.3531
   Eigenvalues:   187.7111   196.3092   203.6309
      9  C    Isotropic =   181.0976   Anisotropy =    44.8164
   XX=   175.2915   YX=    22.1263   ZX=    -1.5019
   XY=     7.8751   YY=   169.2920   ZY=    16.8913
   XZ=     6.9079   YZ=    22.1491   ZZ=   198.7092
   Eigenvalues:   152.5394   179.7782   210.9751
     10  C    Isotropic =   190.4039   Anisotropy =    29.3982
   XX=   189.7543   YX=   -12.8800   ZX=     0.5902
   XY=    -9.3038   YY=   195.5742   ZY=    12.4847
   XZ=     0.0326   YZ=    16.2408   ZZ=   185.8833
   Eigenvalues:   172.5345   188.6746   210.0027
     11  C    Isotropic =   213.7394   Anisotropy =    20.0333
   XX=   215.0186   YX=    -8.4036   ZX=     7.8381
   XY=    -8.8561   YY=   214.4777   ZY=     1.1605
   XZ=     7.8927   YZ=    -6.1817   ZZ=   211.7220
   Eigenvalues:   203.5990   210.5243   227.0950
     12  C    Isotropic =   212.7921   Anisotropy =    21.2073
   XX=   207.7772   YX=    -7.4337   ZX=     0.1179
   XY=    -8.9476   YY=   221.2090   ZY=     5.2304
   XZ=    -0.6722   YZ=     7.0076   ZZ=   209.3901
   Eigenvalues:   202.8122   208.6338   226.9303
     13  C    Isotropic =   213.5504   Anisotropy =     9.0890
   XX=   212.8469   YX=     2.2240   ZX=     3.8091
   XY=    -0.9611   YY=   212.1092   ZY=    -1.4806
   XZ=     5.7374   YZ=    -3.4411   ZZ=   215.6950
   Eigenvalues:   208.2213   212.8202   219.6097
     14  N    Isotropic =   302.2993   Anisotropy =    53.9415
   XX=   270.4600   YX=   -41.4227   ZX=     7.4654
   XY=   -40.3011   YY=   312.5279   ZY=     7.9046
   XZ=    24.6868   YZ=    18.3002   ZZ=   323.9099
   Eigenvalues:   240.4712   328.1663   338.2603
     15  C    Isotropic =   205.1874   Anisotropy =    35.2219
   XX=   202.7389   YX=     5.9165   ZX=     6.6036
   XY=     7.0719   YY=   194.3933   ZY=    17.1444
   XZ=     6.8047   YZ=    12.8254   ZZ=   218.4300
   Eigenvalues:   186.5854   200.3081   228.6686
     16  C    Isotropic =   224.1737   Anisotropy =     8.6267
   XX=   226.9592   YX=    -1.7250   ZX=    -2.6711
   XY=    -2.3702   YY=   221.9027   ZY=     2.0380
   XZ=    -1.0515   YZ=     6.9998   ZZ=   223.6592
   Eigenvalues:   218.1579   224.4384   229.9248
     17  C    Isotropic =   215.3159   Anisotropy =    19.8908
   XX=   209.2910   YX=     0.3712   ZX=     5.8380
   XY=    -0.0717   YY=   213.2514   ZY=     9.4101
   XZ=     1.0691   YZ=     7.2416   ZZ=   223.4051
   Eigenvalues:   207.1410   210.2302   228.5764
     18  C    Isotropic =   210.2433   Anisotropy =    37.3093
   XX=   209.6399   YX=   -14.4913   ZX=     7.2748
   XY=   -13.2719   YY=   226.8660   ZY=    13.3034
   XZ=     6.8678   YZ=     4.7408   ZZ=   194.2240
   Eigenvalues:   186.5484   209.0653   235.1162
     19  C    Isotropic =   199.9247   Anisotropy =    42.0224
   XX=   186.7373   YX=   -10.9521   ZX=    15.9953
   XY=   -15.5233   YY=   198.2797   ZY=    -4.3768
   XZ=    19.1535   YZ=    -8.3698   ZZ=   214.7571
   Eigenvalues:   174.3243   197.5101   227.9397
     20  C    Isotropic =   212.1182   Anisotropy =    20.9060
   XX=   205.9569   YX=     6.2469   ZX=     4.4335
   XY=     5.2880   YY=   206.6848   ZY=    -6.2577
   XZ=     2.5911   YZ=    -6.8264   ZZ=   223.7130
   Eigenvalues:   198.5411   211.7580   226.0556
     21  C    Isotropic =   209.0841   Anisotropy =     9.6804
   XX=   209.9116   YX=     4.5665   ZX=     4.6327
   XY=     2.1611   YY=   210.4950   ZY=   -10.7488
   XZ=     4.1054   YZ=    -2.4918   ZZ=   206.8456
   Eigenvalues:   199.0134   212.7011   215.5377
     22  C    Isotropic =    96.2387   Anisotropy =    98.4997
   XX=   149.6584   YX=    10.0005   ZX=   -27.8666
   XY=     6.4242   YY=   155.2984   ZY=    22.3385
   XZ=   -39.1407   YZ=    42.1003   ZZ=   -16.2408
   Eigenvalues:   -28.7393   155.5501   161.9051
     23  O    Isotropic =  -134.2943   Anisotropy =   888.8730
   XX=   297.6834   YX=   348.9859   ZX=   -32.0827
   XY=   363.8596   YY=  -382.7517   ZY=  -125.5474
   XZ=   -39.3332   YZ=  -108.0960   ZZ=  -317.8146
   Eigenvalues:  -570.5933  -290.5772   458.2877
     24  O    Isotropic =   283.4287   Anisotropy =   139.9181
   XX=   315.1314   YX=    65.9584   ZX=   -69.4277
   XY=    96.7062   YY=   201.8364   ZY=   155.5997
   XZ=   -16.8737   YZ=    17.9531   ZZ=   333.3183
   Eigenvalues:   116.1367   357.4419   376.7074
     25  C    Isotropic =   197.3492   Anisotropy =    56.8348
   XX=   186.7802   YX=   -11.9338   ZX=    14.3802
   XY=   -11.3005   YY=   196.5174   ZY=   -24.6368
   XZ=    14.5437   YZ=   -24.8854   ZZ=   208.7499
   Eigenvalues:   177.1102   179.6983   235.2390
     26  C    Isotropic =   209.9226   Anisotropy =    41.8609
   XX=   204.3041   YX=   -10.8495   ZX=   -15.5128
   XY=    -9.9330   YY=   206.0401   ZY=    13.3107
   XZ=   -17.1529   YZ=    11.1205   ZZ=   219.4236
   Eigenvalues:   193.0872   198.8508   237.8299
     27  C    Isotropic =   206.5165   Anisotropy =    18.7846
   XX=   217.7167   YX=     3.0807   ZX=    -5.4524
   XY=     2.1098   YY=   203.2757   ZY=    -6.5274
   XZ=    -0.6149   YZ=    -5.5993   ZZ=   198.5573
   Eigenvalues:   194.3618   206.1483   219.0396
     28  C    Isotropic =   120.4380   Anisotropy =   156.4254
   XX=    62.5922   YX=    21.8634   ZX=   -39.9951
   XY=    14.9868   YY=    85.9966   ZY=    10.9522
   XZ=   -47.1798   YZ=    11.2840   ZZ=   212.7253
   Eigenvalues:    41.2536    95.3389   224.7217
     29  C    Isotropic =   127.9629   Anisotropy =   149.3975
   XX=    85.1818   YX=   -36.1878   ZX=   -33.7689
   XY=   -44.9427   YY=    80.4566   ZY=    -3.4680
   XZ=   -38.2095   YZ=    -6.2660   ZZ=   218.2502
   Eigenvalues:    37.6173   118.7100   227.5612
     30  C    Isotropic =   119.1448   Anisotropy =   149.0538
   XX=   114.9342   YX=    11.3022   ZX=   -25.0999
   XY=    13.4471   YY=    32.6381   ZY=    16.5331
   XZ=   -30.9921   YZ=    18.1027   ZZ=   209.8621
   Eigenvalues:    28.2373   110.6831   218.5140
     31  C    Isotropic =   133.6248   Anisotropy =   142.7202
   XX=    89.4253   YX=   -37.5398   ZX=   -31.2074
   XY=   -31.3861   YY=    90.8998   ZY=     2.6700
   XZ=   -34.8914   YZ=    -4.9260   ZZ=   220.5493
   Eigenvalues:    52.0074   120.0954   228.7716
     32  C    Isotropic =   108.2610   Anisotropy =   129.4444
   XX=    55.9095   YX=    16.4083   ZX=   -42.0194
   XY=     3.1568   YY=    86.2368   ZY=     9.0344
   XZ=   -39.1648   YZ=     0.6448   ZZ=   182.6369
   Eigenvalues:    41.4420    88.7838   194.5573
     33  C    Isotropic =   117.7382   Anisotropy =   140.0674
   XX=    98.4493   YX=    -4.1346   ZX=   -25.5343
   XY=     6.1226   YY=    49.9367   ZY=    11.4807
   XZ=   -23.3104   YZ=    14.2640   ZZ=   204.8287
   Eigenvalues:    48.6788    93.4194   211.1165
     34  N    Isotropic =   271.3290   Anisotropy =    83.1813
   XX=   273.0388   YX=   -24.3564   ZX=    21.1254
   XY=   -41.3289   YY=   274.1953   ZY=   -35.7575
   XZ=    15.3596   YZ=   -25.6300   ZZ=   266.7530
   Eigenvalues:   235.6521   251.5517   326.7832
     35  C    Isotropic =   201.2298   Anisotropy =    17.3918
   XX=   210.6188   YX=     2.5724   ZX=    -6.1063
   XY=     8.7104   YY=   197.5151   ZY=     1.9743
   XZ=     0.0554   YZ=     6.7107   ZZ=   195.5555
   Eigenvalues:   190.3250   200.5401   212.8243
     36  C    Isotropic =   178.9172   Anisotropy =    39.1179
   XX=   187.1399   YX=    18.3260   ZX=    -1.5212
   XY=    10.9742   YY=   191.7060   ZY=    -4.5040
   XZ=    10.1119   YZ=   -17.8409   ZZ=   157.9058
   Eigenvalues:   152.3078   179.4481   204.9959
     37  C    Isotropic =   183.7405   Anisotropy =    41.1303
   XX=   164.6944   YX=     9.6374   ZX=    -6.8191
   XY=     7.8453   YY=   191.3387   ZY=    19.7607
   XZ=    -0.5659   YZ=    15.3928   ZZ=   195.1883
   Eigenvalues:   159.5016   180.5592   211.1607
     38  C    Isotropic =   211.0445   Anisotropy =    22.8449
   XX=   204.5849   YX=    -5.3583   ZX=   -11.3867
   XY=     2.5567   YY=   206.3524   ZY=     1.1484
   XZ=    -6.9244   YZ=     1.7841   ZZ=   222.1962
   Eigenvalues:   200.5967   206.2624   226.2744
     39  C    Isotropic =   212.9633   Anisotropy =    19.3746
   XX=   209.0104   YX=     4.1148   ZX=    -2.4571
   XY=    -0.8074   YY=   220.5242   ZY=     9.4767
   XZ=    -1.3774   YZ=     9.3041   ZZ=   209.3552
   Eigenvalues:   202.9878   210.0223   225.8797
     40  C    Isotropic =   211.6968   Anisotropy =    10.5619
   XX=   211.0842   YX=     1.1749   ZX=    -2.7658
   XY=     2.4730   YY=   214.3761   ZY=    -4.9380
   XZ=    -2.3301   YZ=    -5.2387   ZZ=   209.6300
   Eigenvalues:   206.0695   210.2828   218.7381
     41  N    Isotropic =   235.6425   Anisotropy =    25.4406
   XX=   241.0043   YX=   -25.5333   ZX=    11.7930
   XY=    -0.1831   YY=   237.0256   ZY=     9.8792
   XZ=    12.7613   YZ=     9.8142   ZZ=   228.8977
   Eigenvalues:   211.8210   242.5036   252.6029
     42  C    Isotropic =   193.9653   Anisotropy =    49.5545
   XX=   205.5053   YX=    21.0395   ZX=    -4.6625
   XY=    26.7672   YY=   195.6304   ZY=    -8.5654
   XZ=    -6.9494   YZ=    -7.7835   ZZ=   180.7603
   Eigenvalues:   174.5303   180.3640   227.0016
     43  C    Isotropic =   219.4342   Anisotropy =     9.4341
   XX=   210.4529   YX=     5.6171   ZX=     2.2174
   XY=     3.5218   YY=   223.0047   ZY=    -0.5961
   XZ=     4.0256   YZ=    -2.4123   ZZ=   224.8450
   Eigenvalues:   208.2544   224.3246   225.7236
     44  C    Isotropic =   215.0018   Anisotropy =    21.8443
   XX=   212.8557   YX=     9.0228   ZX=    -2.7833
   XY=    12.0089   YY=   222.1705   ZY=    -0.7525
   XZ=    -5.3094   YZ=    -1.7539   ZZ=   209.9793
   Eigenvalues:   204.5456   210.8952   229.5647
     45  C    Isotropic =   206.6889   Anisotropy =    33.1683
   XX=   189.2486   YX=    16.0864   ZX=    -5.0790
   XY=    10.8995   YY=   208.9449   ZY=    10.0065
   XZ=     0.0332   YZ=    12.0342   ZZ=   221.8731
   Eigenvalues:   181.0359   210.2296   228.8011
     46  C    Isotropic =   190.8043   Anisotropy =    50.4453
   XX=   166.2064   YX=    12.9269   ZX=     5.7077
   XY=     2.5144   YY=   193.6294   ZY=   -21.9516
   XZ=     3.9397   YZ=   -16.2725   ZZ=   212.5770
   Eigenvalues:   162.0122   185.9661   224.4345
     47  C    Isotropic =   211.1896   Anisotropy =    25.5268
   XX=   225.9438   YX=     0.9039   ZX=    -7.9801
   XY=     0.4524   YY=   207.2582   ZY=    -7.4767
   XZ=    -6.6027   YZ=    -7.1652   ZZ=   200.3668
   Eigenvalues:   194.6090   210.7524   228.2075
     48  C    Isotropic =   207.6516   Anisotropy =    12.5319
   XX=   210.8385   YX=    -2.0026   ZX=    -3.9232
   XY=    -7.2561   YY=   206.3161   ZY=     3.6792
   XZ=    -5.5590   YZ=    -0.7787   ZZ=   205.8001
   Eigenvalues:   202.3138   204.6347   216.0062
     49  C    Isotropic =    98.5135   Anisotropy =   103.5849
   XX=   113.0164   YX=   -16.6180   ZX=    72.9962
   XY=   -35.4969   YY=   155.0890   ZY=    43.8764
   XZ=    84.2157   YZ=    29.2828   ZZ=    27.4350
   Eigenvalues:   -30.0944   158.0648   167.5701
     50  O    Isotropic =  -133.0256   Anisotropy =   875.6554
   XX=    57.3590   YX=   307.8211   ZX=   292.1112
   XY=   302.2601   YY=  -406.5629   ZY=   192.3216
   XZ=   305.7585   YZ=   168.1001   ZZ=   -49.8728
   Eigenvalues:  -560.1461  -289.6753   450.7447
     51  O    Isotropic =   286.2796   Anisotropy =   132.2001
   XX=   258.1493   YX=    52.9603   ZX=   105.9063
   XY=   125.1267   YY=   297.3955   ZY=  -124.8742
   XZ=    43.4445   YZ=   -18.0939   ZZ=   303.2941
   Eigenvalues:   126.4905   357.9354   374.4131
     52  C    Isotropic =   197.5823   Anisotropy =    58.2644
   XX=   204.7432   YX=    -8.7139   ZX=   -27.0832
   XY=    -8.9248   YY=   181.2065   ZY=    10.2943
   XZ=   -27.2218   YZ=    11.2193   ZZ=   206.7972
   Eigenvalues:   177.0010   179.3206   236.4252
     53  C    Isotropic =   210.7402   Anisotropy =    42.0566
   XX=   220.1585   YX=    15.0516   ZX=    12.6463
   XY=    15.8234   YY=   206.2788   ZY=    10.9392
   XZ=    12.2071   YZ=    12.5728   ZZ=   205.7832
   Eigenvalues:   193.9022   199.5404   238.7779
     54  O    Isotropic =    78.9312   Anisotropy =   400.0557
   XX=   211.1671   YX=  -197.5876   ZX=   -55.6719
   XY=  -174.8405   YY=    64.6150   ZY=    34.3000
   XZ=   -35.4340   YZ=    24.4189   ZZ=   -38.9886
   Eigenvalues:   -62.3403   -46.5012   345.6350
     55  H    Isotropic =    25.4897   Anisotropy =    13.0866
   XX=    29.0429   YX=     6.5409   ZX=    -0.9613
   XY=     6.3269   YY=    25.9541   ZY=    -1.2695
   XZ=    -0.5326   YZ=    -0.4634   ZZ=    21.4723
   Eigenvalues:    20.7996    21.4555    34.2141
     56  H    Isotropic =    26.0466   Anisotropy =     6.9496
   XX=    26.1387   YX=     1.1989   ZX=    -3.4420
   XY=     1.6325   YY=    25.3555   ZY=     1.9113
   XZ=    -4.8729   YZ=     2.7897   ZZ=    26.6456
   Eigenvalues:    20.7073    26.7528    30.6796
     57  H    Isotropic =    26.6624   Anisotropy =     7.6974
   XX=    27.2559   YX=     4.7716   ZX=    -1.1582
   XY=     4.7688   YY=    26.5921   ZY=     2.8900
   XZ=    -2.2656   YZ=     2.6484   ZZ=    26.1392
   Eigenvalues:    20.3658    27.8274    31.7940
     58  H    Isotropic =    31.4166   Anisotropy =     8.6884
   XX=    29.1158   YX=     2.4537   ZX=    -0.1474
   XY=     2.0421   YY=    33.4436   ZY=    -5.2277
   XZ=    -1.0560   YZ=    -2.7309   ZZ=    31.6903
   Eigenvalues:    27.6119    29.4289    37.2088
     59  H    Isotropic =    32.8440   Anisotropy =     9.0984
   XX=    31.8914   YX=     2.8305   ZX=     1.9332
   XY=    -0.8331   YY=    38.6113   ZY=    -1.7436
   XZ=     2.8990   YZ=    -1.4494   ZZ=    28.0293
   Eigenvalues:    26.5762    33.0463    38.9096
     60  H    Isotropic =    32.1393   Anisotropy =    13.7784
   XX=    35.4328   YX=    -5.0275   ZX=    -3.2635
   XY=    -6.3642   YY=    28.6883   ZY=     4.8028
   XZ=    -2.1303   YZ=     4.8924   ZZ=    32.2968
   Eigenvalues:    24.1813    30.9117    41.3249
     61  H    Isotropic =    32.3137   Anisotropy =    15.4750
   XX=    42.1841   YX=    -2.3700   ZX=     1.0603
   XY=    -2.6569   YY=    27.2858   ZY=     1.4493
   XZ=     0.8575   YZ=     1.4625   ZZ=    27.4712
   Eigenvalues:    25.5403    28.7705    42.6304
     62  H    Isotropic =    32.5286   Anisotropy =    13.9054
   XX=    28.2830   YX=    -2.3861   ZX=     3.3977
   XY=    -3.5450   YY=    34.7099   ZY=    -5.9931
   XZ=     3.4642   YZ=    -5.2742   ZZ=    34.5928
   Eigenvalues:    26.7218    29.0652    41.7988
     63  H    Isotropic =    31.7579   Anisotropy =    14.4127
   XX=    28.0715   YX=     1.8011   ZX=    -1.6890
   XY=     1.8474   YY=    26.9259   ZY=    -2.6682
   XZ=    -2.4620   YZ=    -3.3556   ZZ=    40.2764
   Eigenvalues:    25.4645    28.4429    41.3664
     64  H    Isotropic =    31.7824   Anisotropy =    14.4863
   XX=    32.0445   YX=    -4.9507   ZX=    -1.7509
   XY=    -5.5919   YY=    32.3596   ZY=     6.9658
   XZ=    -2.0550   YZ=     6.6356   ZZ=    30.9430
   Eigenvalues:    24.0796    29.8275    41.4399
     65  H    Isotropic =    32.5979   Anisotropy =    18.1366
   XX=    29.8778   YX=     2.3124   ZX=     4.7983
   XY=     2.2356   YY=    29.8829   ZY=     7.4786
   XZ=     5.0785   YZ=     8.0251   ZZ=    38.0329
   Eigenvalues:    25.0829    28.0218    44.6889
     66  H    Isotropic =    32.5163   Anisotropy =    10.2708
   XX=    28.2442   YX=     2.6363   ZX=     0.1280
   XY=     2.5774   YY=    38.3289   ZY=    -1.7527
   XZ=    -0.0414   YZ=    -2.0369   ZZ=    30.9758
   Eigenvalues:    27.5340    30.6514    39.3635
     67  H    Isotropic =    32.6046   Anisotropy =    13.6207
   XX=    28.3820   YX=    -2.4455   ZX=     4.1875
   XY=    -2.7390   YY=    31.5009   ZY=    -4.0979
   XZ=     4.2079   YZ=    -3.9650   ZZ=    37.9308
   Eigenvalues:    26.4958    29.6328    41.6850
     68  H    Isotropic =    32.4493   Anisotropy =    15.0334
   XX=    40.9040   YX=     3.2087   ZX=     2.9660
   XY=     3.4488   YY=    27.3455   ZY=     2.7595
   XZ=     2.4089   YZ=     2.6352   ZZ=    29.0984
   Eigenvalues:    25.2878    29.5885    42.4716
     69  H    Isotropic =    32.5111   Anisotropy =    17.2143
   XX=    43.8904   YX=    -1.3501   ZX=     0.8073
   XY=     1.4257   YY=    30.7403   ZY=     2.4806
   XZ=     2.0320   YZ=     0.3253   ZZ=    22.9026
   Eigenvalues:    22.5681    30.9779    43.9873
     70  H    Isotropic =    32.9319   Anisotropy =     8.7668
   XX=    32.6760   YX=    -2.9661   ZX=    -0.8799
   XY=    -1.5997   YY=    30.1053   ZY=    -4.5676
   XZ=     0.0742   YZ=    -4.9821   ZZ=    36.0145
   Eigenvalues:    26.6433    33.3761    38.7765
     71  H    Isotropic =    31.9312   Anisotropy =    16.7451
   XX=    38.1834   YX=    -7.5056   ZX=    -0.3371
   XY=    -7.5799   YY=    31.3595   ZY=     3.0517
   XZ=     1.6382   YZ=     2.1227   ZZ=    26.2507
   Eigenvalues:    23.8222    28.8769    43.0946
     72  H    Isotropic =    31.8450   Anisotropy =     8.0564
   XX=    30.8719   YX=     1.2090   ZX=    -0.6707
   XY=     2.1799   YY=    36.1244   ZY=    -2.0007
   XZ=    -0.0178   YZ=    -2.5196   ZZ=    28.5388
   Eigenvalues:    27.9111    30.4080    37.2159
     73  H    Isotropic =    31.3955   Anisotropy =     9.0190
   XX=    27.3074   YX=    -1.1804   ZX=    -0.1470
   XY=    -0.8722   YY=    37.2832   ZY=     0.9905
   XZ=    -0.9759   YZ=    -0.3024   ZZ=    29.5958
   Eigenvalues:    27.0927    29.6856    37.4082
     74  H    Isotropic =    32.1838   Anisotropy =    15.0354
   XX=    39.7561   YX=     5.8862   ZX=    -0.3617
   XY=     6.0812   YY=    27.3678   ZY=     0.4134
   XZ=    -1.1951   YZ=    -0.0378   ZZ=    29.4277
   Eigenvalues:    24.9014    29.4427    42.2075
     75  H    Isotropic =    31.1441   Anisotropy =    12.6085
   XX=    35.0068   YX=    -1.3758   ZX=    -5.8020
   XY=     0.0836   YY=    25.6775   ZY=     0.9687
   XZ=    -5.1693   YZ=     0.6006   ZZ=    32.7478
   Eigenvalues:    25.5911    28.2914    39.5497
     76  H    Isotropic =    30.5488   Anisotropy =    11.8007
   XX=    25.8038   YX=    -0.1673   ZX=     0.0913
   XY=    -0.0773   YY=    27.5051   ZY=     0.5512
   XZ=    -0.5921   YZ=     1.2338   ZZ=    38.3376
   Eigenvalues:    25.7922    27.4383    38.4160
     77  H    Isotropic =    30.5724   Anisotropy =    11.5445
   XX=    27.5553   YX=     3.3311   ZX=    -1.4732
   XY=     3.8803   YY=    34.4561   ZY=    -4.5216
   XZ=    -1.2348   YZ=    -3.9074   ZZ=    29.7058
   Eigenvalues:    25.9241    27.5243    38.2687
     78  H    Isotropic =    30.6759   Anisotropy =     8.1776
   XX=    35.1380   YX=    -2.5559   ZX=     1.1814
   XY=    -2.4360   YY=    27.2647   ZY=    -2.5607
   XZ=    -0.0676   YZ=    -2.6034   ZZ=    29.6249
   Eigenvalues:    25.2590    30.6410    36.1276
     79  H    Isotropic =    31.9028   Anisotropy =    12.2840
   XX=    29.9668   YX=    -4.2785   ZX=    -1.9973
   XY=    -5.5260   YY=    36.5312   ZY=     3.3173
   XZ=    -0.7470   YZ=     2.4816   ZZ=    29.2104
   Eigenvalues:    27.3258    28.2905    40.0921
     80  H    Isotropic =    30.7696   Anisotropy =    13.8202
   XX=    27.4773   YX=     2.2870   ZX=     1.7050
   XY=     1.7566   YY=    26.8808   ZY=     4.6995
   XZ=     1.9058   YZ=     4.2317   ZZ=    37.9508
   Eigenvalues:    24.6173    27.7084    39.9831
     81  H    Isotropic =    30.8997   Anisotropy =    10.7959
   XX=    31.5898   YX=     3.1464   ZX=    -6.2475
   XY=     2.1266   YY=    29.0600   ZY=     1.5887
   XZ=    -6.0608   YZ=     0.7061   ZZ=    32.0494
   Eigenvalues:    24.1575    30.4446    38.0970
     82  H    Isotropic =    30.1266   Anisotropy =     8.6338
   XX=    28.0560   YX=     1.7662   ZX=     1.4159
   XY=     2.5665   YY=    27.3316   ZY=    -1.3088
   XZ=     3.7673   YZ=    -1.1372   ZZ=    34.9922
   Eigenvalues:    24.8107    29.6867    35.8825
     83  H    Isotropic =    29.8400   Anisotropy =    12.5836
   XX=    28.1381   YX=     0.1753   ZX=    -0.1298
   XY=     2.3066   YY=    38.0349   ZY=    -0.7572
   XZ=    -1.7346   YZ=    -0.5817   ZZ=    23.3470
   Eigenvalues:    23.1593    28.1316    38.2291
     84  H    Isotropic =    26.8692   Anisotropy =    16.1723
   XX=    34.0102   YX=    -4.9026   ZX=     0.2125
   XY=    -6.1131   YY=    28.7917   ZY=     0.0569
   XZ=     2.9041   YZ=    -1.6967   ZZ=    17.8058
   Eigenvalues:    17.6480    25.3089    37.6508
     85  H    Isotropic =    25.6375   Anisotropy =     6.7341
   XX=    29.1771   YX=     1.7968   ZX=     1.4095
   XY=     1.2672   YY=    27.1629   ZY=    -0.6118
   XZ=     1.5424   YZ=    -0.3652   ZZ=    20.5726
   Eigenvalues:    20.2460    26.5397    30.1270
     86  H    Isotropic =    26.4135   Anisotropy =     7.7057
   XX=    27.8024   YX=    -0.5483   ZX=     2.0294
   XY=    -0.4361   YY=    30.9722   ZY=    -2.0363
   XZ=     1.4463   YZ=    -2.1032   ZZ=    20.4658
   Eigenvalues:    19.7465    27.9433    31.5506
     87  H    Isotropic =    32.1986   Anisotropy =    11.6733
   XX=    39.2632   YX=    -1.8209   ZX=     0.7262
   XY=    -2.8918   YY=    31.4410   ZY=     0.0810
   XZ=     0.7075   YZ=    -1.9253   ZZ=    25.8917
   Eigenvalues:    25.7337    30.8814    39.9808
     88  H    Isotropic =    33.3891   Anisotropy =     8.3479
   XX=    30.0259   YX=    -3.2485   ZX=    -3.0783
   XY=    -3.4300   YY=    37.3971   ZY=     2.1245
   XZ=     0.0115   YZ=    -0.5631   ZZ=    32.7443
   Eigenvalues:    28.4206    32.7923    38.9543
     89  H    Isotropic =    32.2359   Anisotropy =    13.3441
   XX=    31.4490   YX=     4.5113   ZX=     4.2888
   XY=     3.7472   YY=    28.7022   ZY=     2.6665
   XZ=     5.9755   YZ=     1.8545   ZZ=    36.5564
   Eigenvalues:    25.5447    30.0309    41.1319
     90  H    Isotropic =    32.4109   Anisotropy =    14.7886
   XX=    27.2792   YX=     1.0718   ZX=     0.8076
   XY=     1.1243   YY=    27.9580   ZY=    -1.5164
   XZ=     1.1822   YZ=    -2.0742   ZZ=    41.9955
   Eigenvalues:    26.2441    28.7187    42.2700
     91  H    Isotropic =    33.3270   Anisotropy =    13.0285
   XX=    39.3635   YX=    -3.4304   ZX=    -3.8866
   XY=    -4.2024   YY=    30.5453   ZY=     2.1626
   XZ=    -3.4112   YZ=     0.1743   ZZ=    30.0723
   Eigenvalues:    28.7642    29.2042    42.0127
     92  H    Isotropic =    30.9489   Anisotropy =    13.0104
   XX=    27.8279   YX=     4.0650   ZX=     2.1937
   XY=     2.8624   YY=    33.9961   ZY=     5.7922
   XZ=     2.1992   YZ=     5.2064   ZZ=    31.0226
   Eigenvalues:    26.2166    27.0075    39.6225
     93  H    Isotropic =    32.2012   Anisotropy =    16.1782
   XX=    42.4475   YX=    -2.1836   ZX=     2.1898
   XY=    -0.9847   YY=    28.9876   ZY=    -1.1158
   XZ=     2.5938   YZ=    -1.2487   ZZ=    25.1687
   Eigenvalues:    24.6250    28.9920    42.9867
     94  H    Isotropic =    32.4640   Anisotropy =    15.9516
   XX=    34.0427   YX=     7.6889   ZX=    -2.2537
   XY=     7.2851   YY=    35.1021   ZY=    -3.4295
   XZ=    -1.6451   YZ=    -3.5585   ZZ=    28.2472
   Eigenvalues:    26.2186    28.0749    43.0984
     95  H    Isotropic =    31.2067   Anisotropy =    14.0293
   XX=    30.2512   YX=    -5.3622   ZX=     0.1333
   XY=    -5.5523   YY=    37.6576   ZY=    -0.1987
   XZ=     0.6359   YZ=    -0.2665   ZZ=    25.7112
   Eigenvalues:    25.6696    27.3908    40.5595
     96  H    Isotropic =    32.9587   Anisotropy =    12.5507
   XX=    38.4701   YX=    -0.2737   ZX=    -5.6898
   XY=    -0.2418   YY=    29.9041   ZY=     1.2801
   XZ=    -5.3378   YZ=     0.5716   ZZ=    30.5019
   Eigenvalues:    27.4749    30.0754    41.3258
     97  H    Isotropic =    32.2670   Anisotropy =    14.8267
   XX=    28.0718   YX=     0.5646   ZX=     2.7044
   XY=     0.5510   YY=    32.3104   ZY=    -7.1922
   XZ=     2.9706   YZ=    -7.2698   ZZ=    36.4189
   Eigenvalues:    25.1357    29.5138    42.1515
     98  H    Isotropic =    32.4609   Anisotropy =    10.0148
   XX=    27.7856   YX=    -0.1162   ZX=    -1.4943
   XY=     1.1840   YY=    32.6290   ZY=    -4.9317
   XZ=    -1.9084   YZ=    -1.9542   ZZ=    36.9681
   Eigenvalues:    27.4787    30.7665    39.1374
     99  H    Isotropic =    30.6115   Anisotropy =    14.4335
   XX=    38.8046   YX=    -2.7487   ZX=    -3.1117
   XY=    -1.2397   YY=    24.8022   ZY=     2.7947
   XZ=    -3.4817   YZ=     2.9293   ZZ=    28.2277
   Eigenvalues:    23.1787    28.4220    40.2338
    100  H    Isotropic =    31.5606   Anisotropy =    12.5453
   XX=    36.8355   YX=    -2.5025   ZX=     4.0659
   XY=    -2.9847   YY=    28.8190   ZY=    -1.4461
   XZ=     5.6258   YZ=    -0.6316   ZZ=    29.0272
   Eigenvalues:    26.6668    28.0908    39.9241
    101  H    Isotropic =    30.8728   Anisotropy =    14.0262
   XX=    26.6798   YX=     0.4083   ZX=     0.4808
   XY=     1.0420   YY=    28.6978   ZY=     4.9126
   XZ=    -0.5311   YZ=     6.7970   ZZ=    37.2409
   Eigenvalues:    25.3859    27.0090    40.2236
    102  H    Isotropic =    30.1440   Anisotropy =    11.7833
   XX=    30.9107   YX=    -3.9244   ZX=    -0.7524
   XY=    -3.7866   YY=    35.7378   ZY=     0.7258
   XZ=     0.7755   YZ=     2.3475   ZZ=    23.7835
   Eigenvalues:    23.5495    28.8831    37.9995
    103  H    Isotropic =    31.8439   Anisotropy =    14.8147
   XX=    31.4969   YX=    -1.9337   ZX=     4.9427
   XY=    -2.0376   YY=    28.4551   ZY=    -5.5148
   XZ=     5.4664   YZ=    -5.8747   ZZ=    35.5796
   Eigenvalues:    25.1501    28.6612    41.7203
    104  H    Isotropic =    31.4546   Anisotropy =    13.0941
   XX=    35.3690   YX=     1.9148   ZX=     7.1393
   XY=     1.0590   YY=    28.3507   ZY=     1.4033
   XZ=     5.8437   YZ=     0.5759   ZZ=    30.6440
   Eigenvalues:    26.0976    28.0822    40.1840
    105  H    Isotropic =    30.6162   Anisotropy =    10.9772
   XX=    29.7288   YX=     1.2865   ZX=    -4.4996
   XY=     0.8961   YY=    29.4692   ZY=    -3.9627
   XZ=    -4.6487   YZ=    -4.3592   ZZ=    32.6506
   Eigenvalues:    25.4139    28.5004    37.9344
    106  H    Isotropic =    30.4993   Anisotropy =     8.9568
   XX=    29.7340   YX=     0.1733   ZX=    -1.5818
   XY=     0.2331   YY=    30.6512   ZY=     5.6779
   XZ=    -2.1802   YZ=     5.0362   ZZ=    31.1126
   Eigenvalues:    25.0584    29.9689    36.4705
    107  H    Isotropic =    30.5766   Anisotropy =    12.7649
   XX=    38.7321   YX=    -1.7281   ZX=    -0.6683
   XY=    -2.4218   YY=    26.0874   ZY=    -0.1052
   XZ=    -0.3832   YZ=     0.1918   ZZ=    26.9104
   Eigenvalues:    25.7542    26.8891    39.0866
    108  H    Isotropic =    31.3026   Anisotropy =    11.8084
   XX=    37.4096   YX=    -0.1294   ZX=     4.5990
   XY=    -0.4356   YY=    30.9497   ZY=    -0.0942
   XZ=     5.1859   YZ=     0.1745   ZZ=    25.5487
   Eigenvalues:    23.7886    30.9444    39.1749
    109  H    Isotropic =    30.6798   Anisotropy =    14.9949
   XX=    32.4705   YX=     6.8104   ZX=    -1.4005
   XY=     6.3676   YY=    34.2120   ZY=    -3.4592
   XZ=    -0.9391   YZ=    -3.0968   ZZ=    25.3569
   Eigenvalues:    24.0730    27.2900    40.6764
    110  H    Isotropic =    31.9259   Anisotropy =    11.6585
   XX=    29.2328   YX=     2.5854   ZX=     0.2397
   XY=     2.2464   YY=    32.5885   ZY=     5.7695
   XZ=     1.9483   YZ=     5.8696   ZZ=    33.9565
   Eigenvalues:    26.8142    29.2653    39.6982
 End of Minotr F.D. properties file   721 does not exist.
 End of Minotr F.D. properties file   722 does not exist.
 End of Minotr F.D. properties file   788 does not exist.
 Hyperfine terms turned off by default for NAtoms > 100.

 **********************************************************************

            Population analysis using the SCF Density.

 **********************************************************************

 Orbital symmetries:
       Occupied  (A) (A) (A) (A) (A) (A) (A) (A) (A) (A) (A) (A)
                 (A) (A) (A) (A) (A) (A) (A) (A) (A) (A) (A) (A)
                 (A) (A) (A) (A) (A) (A) (A) (A) (A) (A) (A) (A)
                 (A) (A) (A) (A) (A) (A) (A) (A) (A) (A) (A) (A)
                 (A) (A) (A) (A) (A) (A) (A) (A) (A) (A) (A) (A)
                 (A) (A) (A) (A) (A) (A) (A) (A) (A) (A) (A) (A)
                 (A) (A) (A) (A) (A) (A) (A) (A) (A) (A) (A) (A)
                 (A) (A) (A) (A) (A) (A) (A) (A) (A) (A) (A) (A)
                 (A) (A) (A) (A) (A) (A) (A) (A) (A) (A) (A) (A)
                 (A) (A) (A) (A) (A) (A) (A) (A) (A) (A) (A) (A)
                 (A) (A) (A) (A) (A) (A) (A) (A) (A) (A) (A) (A)
                 (A) (A) (A) (A) (A) (A) (A) (A) (A) (A) (A) (A)
                 (A) (A) (A) (A) (A) (A) (A) (A) (A) (A) (A) (A)
                 (A) (A) (A) (A) (A) (A) (A) (A) (A) (A) (A) (A)
                 (A) (A) (A) (A) (A) (A) (A) (A) (A) (A) (A) (A)
                 (A) (A) (A) (A) (A) (A) (A) (A) (A) (A) (A) (A)
                 (A) (A) (A) (A) (A)
       Virtual   (A) (A) (A) (A) (A) (A) (A) (A) (A) (A) (A) (A)
                 (A) (A) (A) (A) (A) (A) (A) (A) (A) (A) (A) (A)
                 (A) (A) (A) (A) (A) (A) (A) (A) (A) (A) (A) (A)
                 (A) (A) (A) (A) (A) (A) (A) (A) (A) (A) (A) (A)
                 (A) (A) (A) (A) (A) (A) (A) (A) (A) (A) (A) (A)
                 (A) (A) (A) (A) (A) (A) (A) (A) (A) (A) (A) (A)
                 (A) (A) (A) (A) (A) (A) (A) (A) (A) (A) (A) (A)
                 (A) (A) (A) (A) (A) (A) (A) (A) (A) (A) (A) (A)
                 (A) (A) (A) (A) (A) (A) (A) (A) (A) (A) (A) (A)
                 (A) (A) (A) (A) (A) (A) (A) (A) (A) (A) (A) (A)
                 (A) (A) (A) (A) (A) (A) (A) (A) (A)
 The electronic state is 1-A.
 Alpha  occ. eigenvalues --  -20.30965 -20.28894 -20.24949 -20.22104 -19.91777
 Alpha  occ. eigenvalues --  -15.48003 -15.33880 -15.33384 -15.31015 -11.16864
 Alpha  occ. eigenvalues --  -11.14544 -11.10871 -11.09773 -11.09427 -11.09255
 Alpha  occ. eigenvalues --  -11.09051 -11.09027 -11.08519 -11.08229 -11.07947
 Alpha  occ. eigenvalues --  -11.07457 -11.07166 -11.06730 -11.06697 -11.06318
 Alpha  occ. eigenvalues --  -11.06121 -11.06078 -11.05900 -11.05735 -11.05686
 Alpha  occ. eigenvalues --  -11.05491 -11.04895 -11.04730 -11.04709 -11.04606
 Alpha  occ. eigenvalues --  -11.04520 -11.04470 -11.04344 -11.04271 -11.04230
 Alpha  occ. eigenvalues --  -11.04221 -11.03968 -11.03540 -11.02985 -11.02311
 Alpha  occ. eigenvalues --  -11.02291 -11.02088 -11.02049 -11.02037 -11.01865
 Alpha  occ. eigenvalues --  -11.01836 -11.01818 -11.01702 -11.01430  -1.38187
 Alpha  occ. eigenvalues --   -1.35971  -1.29463  -1.28006  -1.25265  -1.21809
 Alpha  occ. eigenvalues --   -1.20713  -1.19261  -1.10346  -1.10008  -1.09035
 Alpha  occ. eigenvalues --   -1.07691  -1.05728  -1.05213  -1.02583  -1.01073
 Alpha  occ. eigenvalues --   -0.99325  -0.98639  -0.98596  -0.97446  -0.97137
 Alpha  occ. eigenvalues --   -0.96328  -0.95046  -0.94932  -0.94221  -0.92447
 Alpha  occ. eigenvalues --   -0.91954  -0.91617  -0.90097  -0.89561  -0.88025
 Alpha  occ. eigenvalues --   -0.86503  -0.84922  -0.82971  -0.82258  -0.80764
 Alpha  occ. eigenvalues --   -0.80289  -0.79955  -0.78147  -0.78096  -0.77654
 Alpha  occ. eigenvalues --   -0.77329  -0.74455  -0.74335  -0.72779  -0.72300
 Alpha  occ. eigenvalues --   -0.71591  -0.70253  -0.69753  -0.68357  -0.66298
 Alpha  occ. eigenvalues --   -0.65291  -0.65183  -0.64706  -0.63861  -0.63068
 Alpha  occ. eigenvalues --   -0.62532  -0.62163  -0.61567  -0.61435  -0.61163
 Alpha  occ. eigenvalues --   -0.60965  -0.60133  -0.59260  -0.58993  -0.58518
 Alpha  occ. eigenvalues --   -0.58436  -0.58182  -0.57909  -0.57670  -0.57396
 Alpha  occ. eigenvalues --   -0.57081  -0.56757  -0.56278  -0.56007  -0.55589
 Alpha  occ. eigenvalues --   -0.55136  -0.54837  -0.54549  -0.54518  -0.54355
 Alpha  occ. eigenvalues --   -0.54116  -0.54059  -0.53386  -0.52831  -0.52113
 Alpha  occ. eigenvalues --   -0.51639  -0.51240  -0.51001  -0.50628  -0.50423
 Alpha  occ. eigenvalues --   -0.50140  -0.49946  -0.49393  -0.49170  -0.48621
 Alpha  occ. eigenvalues --   -0.48339  -0.48217  -0.48057  -0.47467  -0.47081
 Alpha  occ. eigenvalues --   -0.46743  -0.46244  -0.45932  -0.45765  -0.45203
 Alpha  occ. eigenvalues --   -0.45042  -0.44770  -0.44639  -0.44484  -0.43986
 Alpha  occ. eigenvalues --   -0.43809  -0.43194  -0.42997  -0.42815  -0.42714
 Alpha  occ. eigenvalues --   -0.42371  -0.42096  -0.41694  -0.41278  -0.40935
 Alpha  occ. eigenvalues --   -0.40484  -0.39729  -0.38828  -0.38595  -0.37978
 Alpha  occ. eigenvalues --   -0.37729  -0.37092  -0.36749  -0.35458  -0.34525
 Alpha  occ. eigenvalues --   -0.33655  -0.32938  -0.32413  -0.31158  -0.30665
 Alpha  occ. eigenvalues --   -0.27562  -0.27084  -0.26592  -0.21385  -0.20461
 Alpha  occ. eigenvalues --   -0.15712  -0.15215
 Alpha virt. eigenvalues --    0.26766   0.26794   0.27513   0.28663   0.30087
 Alpha virt. eigenvalues --    0.33034   0.45832   0.47854   0.48241   0.48892
 Alpha virt. eigenvalues --    0.49380   0.49895   0.50326   0.51863   0.52035
 Alpha virt. eigenvalues --    0.53728   0.53912   0.55157   0.55321   0.56092
 Alpha virt. eigenvalues --    0.56781   0.57355   0.57584   0.58379   0.58931
 Alpha virt. eigenvalues --    0.59453   0.59829   0.60169   0.60210   0.60788
 Alpha virt. eigenvalues --    0.61210   0.61553   0.61853   0.62787   0.62970
 Alpha virt. eigenvalues --    0.63154   0.63294   0.63644   0.63921   0.64502
 Alpha virt. eigenvalues --    0.64708   0.64959   0.65102   0.65360   0.65830
 Alpha virt. eigenvalues --    0.66334   0.66513   0.66632   0.66902   0.67077
 Alpha virt. eigenvalues --    0.67264   0.67666   0.67766   0.67951   0.68292
 Alpha virt. eigenvalues --    0.68678   0.68824   0.69257   0.69440   0.69843
 Alpha virt. eigenvalues --    0.70098   0.70281   0.70439   0.70759   0.70968
 Alpha virt. eigenvalues --    0.71090   0.71163   0.71557   0.72050   0.72265
 Alpha virt. eigenvalues --    0.72529   0.72953   0.73332   0.73447   0.73673
 Alpha virt. eigenvalues --    0.73952   0.74205   0.74460   0.74588   0.74705
 Alpha virt. eigenvalues --    0.74817   0.75454   0.75552   0.76112   0.76194
 Alpha virt. eigenvalues --    0.76463   0.76610   0.76927   0.77313   0.77631
 Alpha virt. eigenvalues --    0.77690   0.78048   0.78634   0.78825   0.79059
 Alpha virt. eigenvalues --    0.79583   0.79707   0.79956   0.80224   0.80713
 Alpha virt. eigenvalues --    0.80875   0.81073   0.81606   0.81783   0.82091
 Alpha virt. eigenvalues --    0.82955   0.83675   0.84094   0.84537   0.84606
 Alpha virt. eigenvalues --    0.85755   0.85875   0.86022   0.87120   0.87866
 Alpha virt. eigenvalues --    0.88292   0.88957   0.90620   0.91572   0.93791
 Alpha virt. eigenvalues --    0.94725   0.95447   0.97602   1.01108   1.02442
 Alpha virt. eigenvalues --    1.10459   1.11168   1.15670   1.16032
          Condensed to atoms (all electrons):
 Mulliken charges:
               1
     1  C   -0.076291
     2  C    0.000208
     3  C   -0.062201
     4  C   -0.089515
     5  C    0.088620
     6  C   -0.014163
     7  N   -0.287007
     8  C    0.018147
     9  C    0.128000
    10  C    0.040123
    11  C   -0.114877
    12  C   -0.105565
    13  C    0.028027
    14  N   -0.291075
    15  C   -0.015401
    16  C   -0.108271
    17  C   -0.102129
    18  C   -0.104250
    19  C   -0.020098
    20  C   -0.110560
    21  C   -0.066722
    22  C    0.319779
    23  O   -0.277426
    24  O   -0.255380
    25  C   -0.055847
    26  C   -0.079278
    27  C   -0.110000
    28  C    0.001027
    29  C   -0.079200
    30  C   -0.062060
    31  C   -0.090545
    32  C    0.093564
    33  C   -0.013285
    34  N   -0.278807
    35  C    0.015396
    36  C    0.134828
    37  C    0.039891
    38  C   -0.116148
    39  C   -0.105576
    40  C    0.040696
    41  N   -0.080844
    42  C   -0.003166
    43  C   -0.097085
    44  C   -0.098990
    45  C   -0.095647
    46  C   -0.004597
    47  C   -0.098788
    48  C   -0.059310
    49  C    0.324620
    50  O   -0.273504
    51  O   -0.255565
    52  C   -0.055696
    53  C   -0.077756
    54  O   -0.461418
    55  H    0.063841
    56  H    0.057483
    57  H    0.058970
    58  H    0.057109
    59  H    0.054842
    60  H    0.051217
    61  H    0.048849
    62  H    0.050948
    63  H    0.054397
    64  H    0.061446
    65  H    0.054675
    66  H    0.050686
    67  H    0.050587
    68  H    0.051970
    69  H    0.056180
    70  H    0.064084
    71  H    0.053656
    72  H    0.053721
    73  H    0.067466
    74  H    0.051945
    75  H    0.065531
    76  H    0.077722
    77  H    0.072950
    78  H    0.073973
    79  H    0.055873
    80  H    0.071908
    81  H    0.076717
    82  H    0.059910
    83  H    0.058594
    84  H    0.056666
    85  H    0.055750
    86  H    0.059579
    87  H    0.055042
    88  H    0.054908
    89  H    0.049159
    90  H    0.052781
    91  H    0.048157
    92  H    0.084648
    93  H    0.056301
    94  H    0.058309
    95  H    0.081743
    96  H    0.046957
    97  H    0.058455
    98  H    0.066433
    99  H    0.092374
   100  H    0.058002
   101  H    0.089653
   102  H    0.101230
   103  H    0.045075
   104  H    0.061473
   105  H    0.074125
   106  H    0.076622
   107  H    0.069925
   108  H    0.072014
   109  H    0.073569
   110  H    0.054916
 Sum of Mulliken charges =  -0.00000
 Mulliken charges with hydrogens summed into heavy atoms:
               1
     1  C   -0.012449
     2  C    0.000208
     3  C   -0.004718
     4  C   -0.030545
     5  C    0.088620
     6  C   -0.014163
     7  N   -0.287007
     8  C    0.018147
     9  C    0.128000
    10  C    0.097232
    11  C   -0.008818
    12  C   -0.005768
    13  C    0.028027
    14  N   -0.291075
    15  C    0.100441
    16  C   -0.002911
    17  C    0.000428
    18  C    0.016014
    19  C    0.087280
    20  C    0.008851
    21  C   -0.001191
    22  C    0.319779
    23  O   -0.277426
    24  O   -0.255380
    25  C    0.168798
    26  C    0.125221
    27  C    0.008504
    28  C    0.001027
    29  C   -0.022534
    30  C   -0.006309
    31  C   -0.030966
    32  C    0.093564
    33  C   -0.013285
    34  N   -0.278807
    35  C    0.015396
    36  C    0.134828
    37  C    0.094933
    38  C   -0.012081
    39  C   -0.004639
    40  C    0.040696
    41  N   -0.080844
    42  C    0.137782
    43  C    0.042967
    44  C    0.006422
    45  C    0.063161
    46  C    0.143058
    47  C    0.047517
    48  C    0.002162
    49  C    0.324620
    50  O   -0.273504
    51  O   -0.255565
    52  C    0.164976
    53  C    0.122744
    54  O   -0.461418
 Electronic spatial extent (au):  <R**2>=          37865.8825
 Charge=              0.0000 electrons
 Dipole moment (field-independent basis, Debye):
    X=             -5.3514    Y=              2.9959    Z=              1.6584  Tot=              6.3532
 Quadrupole moment (field-independent basis, Debye-Ang):
   XX=           -299.4278   YY=           -312.2530   ZZ=           -288.0073
   XY=             20.9769   XZ=              4.1500   YZ=             -0.2785
 Traceless Quadrupole moment (field-independent basis, Debye-Ang):
   XX=              0.4683   YY=            -12.3570   ZZ=             11.8887
   XY=             20.9769   XZ=              4.1500   YZ=             -0.2785
 Octapole moment (field-independent basis, Debye-Ang**2):
  XXX=           -138.8266  YYY=             14.3183  ZZZ=             35.1601  XYY=            -51.8971
  XXY=            131.8773  XXZ=             29.6072  XZZ=             15.2801  YZZ=            -39.6063
  YYZ=             21.2037  XYZ=             -1.9892
 Hexadecapole moment (field-independent basis, Debye-Ang**3):
 XXXX=         -32895.8914 YYYY=          -8304.9672 ZZZZ=          -5411.6235 XXXY=            818.2635
 XXXZ=           -300.9587 YYYX=            226.1280 YYYZ=            -14.1189 ZZZX=           -332.9452
 ZZZY=            -46.6220 XXYY=          -7449.9829 XXZZ=          -6201.0694 YYZZ=          -2248.2995
 XXYZ=             42.7335 YYXZ=            -24.2369 ZZXY=             -2.0350
 N-N= 8.122281990939D+03 E-N=-2.162070494636D+04  KE= 2.279095491084D+03
 ******************************Gaussian NBO Version 3.1******************************
             N A T U R A L   A T O M I C   O R B I T A L   A N D
          N A T U R A L   B O N D   O R B I T A L   A N A L Y S I S
 ******************************Gaussian NBO Version 3.1******************************
       /RESON  / : Allow strongly delocalized NBO set
       /NLMO   / : Form Natural Localized Molecular Orbitals
       /NMR /    : Analyze NMR Sheilding Tensor 

 Analyzing the SCF density

 Job title: Pleiokomenine_C_2                                               

 Storage needed:    355564 in NPA,    438187 in NBO,   2133784 in NLMO ( 104796000 available)
 GSVD:  LWork=     -108884 too small for GESVD, short by      536270 words or      536270 for optimal perf.


 NATURAL POPULATIONS:  Natural atomic orbital occupancies 
                                                          
   NAO  Atom  No  lang   Type(AO)    Occupancy      Energy
 ----------------------------------------------------------
     1    C    1  S      Cor( 1S)     1.99993     -10.94594
     2    C    1  S      Val( 2S)     1.08039      -0.17868
     3    C    1  px     Val( 2p)     0.99332       0.08502
     4    C    1  py     Val( 2p)     0.99342       0.09833
     5    C    1  pz     Val( 2p)     0.99098       0.13433
 
     6    C    2  S      Cor( 1S)     1.99990     -10.95590
     7    C    2  S      Val( 2S)     1.07855      -0.18383
     8    C    2  px     Val( 2p)     0.96361       0.10651
     9    C    2  py     Val( 2p)     0.98129       0.10827
    10    C    2  pz     Val( 2p)     0.96256       0.15170
 
    11    C    3  S      Cor( 1S)     1.99994     -10.94840
    12    C    3  S      Val( 2S)     1.08357      -0.18284
    13    C    3  px     Val( 2p)     0.98599       0.09181
    14    C    3  py     Val( 2p)     0.99279       0.09345
    15    C    3  pz     Val( 2p)     0.97147       0.14546
 
    16    C    4  S      Cor( 1S)     1.99993     -10.94238
    17    C    4  S      Val( 2S)     1.07179      -0.17441
    18    C    4  px     Val( 2p)     1.01601       0.07954
    19    C    4  py     Val( 2p)     1.00640       0.09389
    20    C    4  pz     Val( 2p)     0.99212       0.13617
 
    21    C    5  S      Cor( 1S)     1.99985     -10.98916
    22    C    5  S      Val( 2S)     1.05954      -0.18598
    23    C    5  px     Val( 2p)     0.93208       0.09758
    24    C    5  py     Val( 2p)     0.94868       0.11192
    25    C    5  pz     Val( 2p)     0.94831       0.12811
 
    26    C    6  S      Cor( 1S)     1.99990     -10.94784
    27    C    6  S      Val( 2S)     1.08367      -0.18960
    28    C    6  px     Val( 2p)     0.99929       0.08745
    29    C    6  py     Val( 2p)     0.96726       0.11090
    30    C    6  pz     Val( 2p)     0.97502       0.13967
 
    31    N    7  S      Cor( 1S)     1.99998     -15.27113
    32    N    7  S      Val( 2S)     1.40504      -0.59699
    33    N    7  px     Val( 2p)     1.21471      -0.04576
    34    N    7  py     Val( 2p)     1.42856      -0.13044
    35    N    7  pz     Val( 2p)     1.22712      -0.04109
 
    36    C    8  S      Cor( 1S)     1.99996     -11.01000
    37    C    8  S      Val( 2S)     1.10923      -0.23540
    38    C    8  px     Val( 2p)     0.94380       0.10066
    39    C    8  py     Val( 2p)     0.96923       0.09480
    40    C    8  pz     Val( 2p)     0.95800       0.09041
 
    41    C    9  S      Cor( 1S)     1.99996     -11.05314
    42    C    9  S      Val( 2S)     1.11143      -0.25877
    43    C    9  px     Val( 2p)     0.92748       0.09392
    44    C    9  py     Val( 2p)     0.91747       0.08997
    45    C    9  pz     Val( 2p)     0.87241       0.10018
 
    46    C   10  S      Cor( 1S)     1.99993     -11.02091
    47    C   10  S      Val( 2S)     1.09697      -0.22266
    48    C   10  px     Val( 2p)     0.92973       0.10346
    49    C   10  py     Val( 2p)     0.93846       0.08977
    50    C   10  pz     Val( 2p)     0.96140       0.08629
 
    51    C   11  S      Cor( 1S)     1.99994     -10.98360
    52    C   11  S      Val( 2S)     1.10373      -0.21789
    53    C   11  px     Val( 2p)     0.99853       0.07843
    54    C   11  py     Val( 2p)     0.99377       0.08248
    55    C   11  pz     Val( 2p)     0.98913       0.08173
 
    56    C   12  S      Cor( 1S)     1.99996     -10.98145
    57    C   12  S      Val( 2S)     1.09156      -0.20376
    58    C   12  px     Val( 2p)     1.00088       0.08675
    59    C   12  py     Val( 2p)     0.98889       0.08416
    60    C   12  pz     Val( 2p)     0.99237       0.08493
 
    61    C   13  S      Cor( 1S)     1.99998     -11.00798
    62    C   13  S      Val( 2S)     1.10499      -0.23164
    63    C   13  px     Val( 2p)     0.95598       0.09729
    64    C   13  py     Val( 2p)     0.94695       0.10334
    65    C   13  pz     Val( 2p)     0.94165       0.10742
 
    66    N   14  S      Cor( 1S)     1.99999     -15.24314
    67    N   14  S      Val( 2S)     1.42550      -0.58631
    68    N   14  px     Val( 2p)     1.52378      -0.14856
    69    N   14  py     Val( 2p)     1.20359      -0.02009
    70    N   14  pz     Val( 2p)     1.12631       0.01511
 
    71    C   15  S      Cor( 1S)     1.99994     -11.01165
    72    C   15  S      Val( 2S)     1.06979      -0.19370
    73    C   15  px     Val( 2p)     0.96518       0.09324
    74    C   15  py     Val( 2p)     0.99486       0.08374
    75    C   15  pz     Val( 2p)     0.93203       0.09409
 
    76    C   16  S      Cor( 1S)     1.99997     -10.98005
    77    C   16  S      Val( 2S)     1.08108      -0.19351
    78    C   16  px     Val( 2p)     0.98257       0.08862
    79    C   16  py     Val( 2p)     0.99057       0.09084
    80    C   16  pz     Val( 2p)     1.02047       0.08229
 
    81    C   17  S      Cor( 1S)     1.99996     -10.98291
    82    C   17  S      Val( 2S)     1.08585      -0.19837
    83    C   17  px     Val( 2p)     0.99925       0.08682
    84    C   17  py     Val( 2p)     0.99349       0.08691
    85    C   17  pz     Val( 2p)     0.98992       0.08619
 
    86    C   18  S      Cor( 1S)     1.99995     -10.98156
    87    C   18  S      Val( 2S)     1.09218      -0.20207
    88    C   18  px     Val( 2p)     1.00271       0.08232
    89    C   18  py     Val( 2p)     0.97421       0.08212
    90    C   18  pz     Val( 2p)     1.00463       0.09203
 
    91    C   19  S      Cor( 1S)     1.99994     -11.00522
    92    C   19  S      Val( 2S)     1.07156      -0.18985
    93    C   19  px     Val( 2p)     1.01123       0.07743
    94    C   19  py     Val( 2p)     0.96375       0.10264
    95    C   19  pz     Val( 2p)     0.92060       0.09352
 
    96    C   20  S      Cor( 1S)     1.99992     -10.98799
    97    C   20  S      Val( 2S)     1.09970      -0.21581
    98    C   20  px     Val( 2p)     1.02003       0.07144
    99    C   20  py     Val( 2p)     1.00216       0.08320
   100    C   20  pz     Val( 2p)     0.95198       0.08531
 
   101    C   21  S      Cor( 1S)     1.99994     -11.01177
   102    C   21  S      Val( 2S)     1.11076      -0.24240
   103    C   21  px     Val( 2p)     1.00674       0.06089
   104    C   21  py     Val( 2p)     0.98748       0.06728
   105    C   21  pz     Val( 2p)     0.97981       0.07487
 
   106    C   22  S      Cor( 1S)     1.99991     -11.11570
   107    C   22  S      Val( 2S)     1.05483      -0.26461
   108    C   22  px     Val( 2p)     0.87065       0.00242
   109    C   22  py     Val( 2p)     0.85240       0.13831
   110    C   22  pz     Val( 2p)     0.81899       0.12354
 
   111    O   23  S      Cor( 1S)     1.99999     -20.10212
   112    O   23  S      Val( 2S)     1.80812      -1.06200
   113    O   23  px     Val( 2p)     1.30896      -0.14554
   114    O   23  py     Val( 2p)     1.35280      -0.12541
   115    O   23  pz     Val( 2p)     1.84174      -0.32161
 
   116    O   24  S      Cor( 1S)     1.99999     -20.21905
   117    O   24  S      Val( 2S)     1.73015      -1.03166
   118    O   24  px     Val( 2p)     1.76156      -0.34057
   119    O   24  py     Val( 2p)     1.60458      -0.27655
   120    O   24  pz     Val( 2p)     1.17069      -0.07834
 
   121    C   25  S      Cor( 1S)     1.99984     -11.04904
   122    C   25  S      Val( 2S)     1.07707      -0.23076
   123    C   25  px     Val( 2p)     1.00187       0.04538
   124    C   25  py     Val( 2p)     0.95219       0.05755
   125    C   25  pz     Val( 2p)     0.93444       0.04980
 
   126    C   26  S      Cor( 1S)     1.99992     -11.01812
   127    C   26  S      Val( 2S)     1.06550      -0.19880
   128    C   26  px     Val( 2p)     0.99645       0.06455
   129    C   26  py     Val( 2p)     0.99527       0.06941
   130    C   26  pz     Val( 2p)     0.95945       0.07196
 
   131    C   27  S      Cor( 1S)     1.99995     -10.98297
   132    C   27  S      Val( 2S)     1.08342      -0.18842
   133    C   27  px     Val( 2p)     0.97945       0.09705
   134    C   27  py     Val( 2p)     1.01453       0.08697
   135    C   27  pz     Val( 2p)     1.00938       0.08893
 
   136    C   28  S      Cor( 1S)     1.99990     -10.95618
   137    C   28  S      Val( 2S)     1.07903      -0.18358
   138    C   28  px     Val( 2p)     0.94083       0.16449
   139    C   28  py     Val( 2p)     0.95589       0.17831
   140    C   28  pz     Val( 2p)     1.00847       0.02640
 
   141    C   29  S      Cor( 1S)     1.99992     -10.94540
   142    C   29  S      Val( 2S)     1.07665      -0.17638
   143    C   29  px     Val( 2p)     0.98361       0.14834
   144    C   29  py     Val( 2p)     0.98241       0.15377
   145    C   29  pz     Val( 2p)     1.02081       0.01210
 
   146    C   30  S      Cor( 1S)     1.99994     -10.94677
   147    C   30  S      Val( 2S)     1.08461      -0.18210
   148    C   30  px     Val( 2p)     0.96734       0.16042
   149    C   30  py     Val( 2p)     0.97515       0.15760
   150    C   30  pz     Val( 2p)     1.00674       0.01854
 
   151    C   31  S      Cor( 1S)     1.99993     -10.93973
   152    C   31  S      Val( 2S)     1.07190      -0.17197
   153    C   31  px     Val( 2p)     0.98768       0.14788
   154    C   31  py     Val( 2p)     0.97321       0.16222
   155    C   31  pz     Val( 2p)     1.05592       0.00638
 
   156    C   32  S      Cor( 1S)     1.99985     -10.98813
   157    C   32  S      Val( 2S)     1.06058      -0.18477
   158    C   32  px     Val( 2p)     0.88410       0.15930
   159    C   32  py     Val( 2p)     0.96215       0.16747
   160    C   32  pz     Val( 2p)     0.97580       0.02078
 
   161    C   33  S      Cor( 1S)     1.99990     -10.94889
   162    C   33  S      Val( 2S)     1.08517      -0.19238
   163    C   33  px     Val( 2p)     0.97044       0.16827
   164    C   33  py     Val( 2p)     0.94476       0.14951
   165    C   33  pz     Val( 2p)     1.02170       0.01851
 
   166    N   34  S      Cor( 1S)     1.99998     -15.26646
   167    N   34  S      Val( 2S)     1.40038      -0.58793
   168    N   34  px     Val( 2p)     1.20757      -0.02369
   169    N   34  py     Val( 2p)     1.10788       0.00224
   170    N   34  pz     Val( 2p)     1.55296      -0.17323
 
   171    C   35  S      Cor( 1S)     1.99996     -11.01159
   172    C   35  S      Val( 2S)     1.10307      -0.23451
   173    C   35  px     Val( 2p)     0.98351       0.06158
   174    C   35  py     Val( 2p)     0.95564       0.11231
   175    C   35  pz     Val( 2p)     0.94711       0.10320
 
   176    C   36  S      Cor( 1S)     1.99996     -11.04913
   177    C   36  S      Val( 2S)     1.11612      -0.25632
   178    C   36  px     Val( 2p)     0.92048       0.08749
   179    C   36  py     Val( 2p)     0.86089       0.12528
   180    C   36  pz     Val( 2p)     0.92303       0.09639
 
   181    C   37  S      Cor( 1S)     1.99991     -11.03136
   182    C   37  S      Val( 2S)     1.10933      -0.24822
   183    C   37  px     Val( 2p)     1.00299       0.06435
   184    C   37  py     Val( 2p)     0.89210       0.08383
   185    C   37  pz     Val( 2p)     0.92678       0.07650
 
   186    C   38  S      Cor( 1S)     1.99993     -10.97750
   187    C   38  S      Val( 2S)     1.10934      -0.21672
   188    C   38  px     Val( 2p)     0.99844       0.08871
   189    C   38  py     Val( 2p)     0.99488       0.09022
   190    C   38  pz     Val( 2p)     0.98185       0.08135
 
   191    C   39  S      Cor( 1S)     1.99996     -10.97803
   192    C   39  S      Val( 2S)     1.09085      -0.19972
   193    C   39  px     Val( 2p)     1.00403       0.08802
   194    C   39  py     Val( 2p)     0.98141       0.08702
   195    C   39  pz     Val( 2p)     0.99885       0.08912
 
   196    C   40  S      Cor( 1S)     1.99998     -11.01107
   197    C   40  S      Val( 2S)     1.09935      -0.22555
   198    C   40  px     Val( 2p)     0.95440       0.10593
   199    C   40  py     Val( 2p)     0.94874       0.10445
   200    C   40  pz     Val( 2p)     0.93767       0.10486
 
   201    N   41  S      Cor( 1S)     1.99999     -15.41569
   202    N   41  S      Val( 2S)     1.39150      -0.65488
   203    N   41  px     Val( 2p)     1.26091      -0.13170
   204    N   41  py     Val( 2p)     1.16991      -0.10011
   205    N   41  pz     Val( 2p)     1.14392      -0.10168
 
   206    C   42  S      Cor( 1S)     1.99992     -11.03601
   207    C   42  S      Val( 2S)     1.09113      -0.23253
   208    C   42  px     Val( 2p)     0.89596       0.08847
   209    C   42  py     Val( 2p)     0.95318       0.06530
   210    C   42  pz     Val( 2p)     1.00963       0.04953
 
   211    C   43  S      Cor( 1S)     1.99995     -10.98911
   212    C   43  S      Val( 2S)     1.08730      -0.20307
   213    C   43  px     Val( 2p)     1.03042       0.08029
   214    C   43  py     Val( 2p)     0.99858       0.08020
   215    C   43  pz     Val( 2p)     0.94722       0.09928
 
   216    C   44  S      Cor( 1S)     1.99994     -10.98545
   217    C   44  S      Val( 2S)     1.09183      -0.20396
   218    C   44  px     Val( 2p)     0.99858       0.08843
   219    C   44  py     Val( 2p)     0.98153       0.09117
   220    C   44  pz     Val( 2p)     0.99040       0.08543
 
   221    C   45  S      Cor( 1S)     1.99993     -10.98649
   222    C   45  S      Val( 2S)     1.09809      -0.20830
   223    C   45  px     Val( 2p)     1.00974       0.08191
   224    C   45  py     Val( 2p)     0.99354       0.08236
   225    C   45  pz     Val( 2p)     0.96278       0.09329
 
   226    C   46  S      Cor( 1S)     1.99993     -11.03126
   227    C   46  S      Val( 2S)     1.09470      -0.23270
   228    C   46  px     Val( 2p)     1.00572       0.06355
   229    C   46  py     Val( 2p)     0.96170       0.05983
   230    C   46  pz     Val( 2p)     0.89205       0.08102
 
   231    C   47  S      Cor( 1S)     1.99991     -10.97224
   232    C   47  S      Val( 2S)     1.10368      -0.20028
   233    C   47  px     Val( 2p)     0.94153       0.10932
   234    C   47  py     Val( 2p)     1.00210       0.10088
   235    C   47  pz     Val( 2p)     1.01345       0.09663
 
   236    C   48  S      Cor( 1S)     1.99994     -11.00122
[...]
 Sum       28.3866        2.3438      26.0428        -1.5371      29.9237

 Contributions to Isotropic shielding for atom   93 (    32.2013 ppm):
                         Standard Origin              Atomic Origin
 NLMO      Total    Paramagnetic  Diamagnetic   Paramagnetic  Diamagnetic
   89       0.5670       -0.4955       1.0625        -0.3971       0.9641
   99       1.8392       -1.0654       2.9047         1.2595       0.5798
  102       1.0462       -0.6276       1.6738        -0.0339       1.0801
  103       1.5079        0.2684       1.2395        -0.3128       1.8207
  104      26.2587        0.8793      25.3794         0.5285      25.7302
  105       0.2303       -1.2455       1.4758        -0.4250       0.6553
  106       0.0859       -1.1913       1.2772        -0.8267       0.9126
 Sum       31.5353       -3.4776      35.0129        -0.2075      31.7428

 Contributions to Isotropic shielding for atom   94 (    32.4640 ppm):
                         Standard Origin              Atomic Origin
 NLMO      Total    Paramagnetic  Diamagnetic   Paramagnetic  Diamagnetic
  102       1.5158       -0.0060       1.5218         0.5489       0.9668
  105       1.3147        0.6419       0.6728         0.2099       1.1048
  106      26.2181        0.0918      26.1263         0.4111      25.8069
  107       1.8453        3.3834      -1.5381        -0.0001       1.8454
  108       0.0542       -0.1085       0.1627        -1.0774       1.1315
 Sum       30.9480        4.0025      26.9454         0.0925      30.8555

 Contributions to Isotropic shielding for atom   95 (    31.2067 ppm):
                         Standard Origin              Atomic Origin
 NLMO      Total    Paramagnetic  Diamagnetic   Paramagnetic  Diamagnetic
   99      -0.5399        0.3741      -0.9140        -1.4079       0.8680
  102       1.0620        1.2938      -0.2318         0.1640       0.8980
  105       0.7501        2.3044      -1.5543        -0.4234       1.1735
  106       2.0148        2.9119      -0.8971         0.1790       1.8357
  107      25.7772       -0.3406      26.1178         0.5678      25.2094
  109       0.1095        0.4547      -0.3452        -0.9020       1.0115
  116      -0.2167       -1.4628       1.2461        -0.5787       0.3620
 Sum       28.9570        5.5355      23.4215        -2.4012      31.3581

 Contributions to Isotropic shielding for atom   96 (    32.9587 ppm):
                         Standard Origin              Atomic Origin
 NLMO      Total    Paramagnetic  Diamagnetic   Paramagnetic  Diamagnetic
   97       1.8507       -1.0120       2.8627         0.8950       0.9557
  102       0.2451       -1.0066       1.2518        -0.2802       0.5253
  105       1.4460       -0.9682       2.4143         0.3014       1.1447
  106      -0.0177       -0.9738       0.9560        -1.0430       1.0253
  108      26.3633        0.5361      25.8272         0.2994      26.0640
  109       1.7261        1.6895       0.0366        -0.1160       1.8421
 Sum       31.6136       -1.7350      33.3486         0.0566      31.5570

 Contributions to Isotropic shielding for atom   97 (    32.2670 ppm):
                         Standard Origin              Atomic Origin
 NLMO      Total    Paramagnetic  Diamagnetic   Paramagnetic  Diamagnetic
   97       0.7571        1.9226      -1.1655        -0.2158       0.9729
   98      -0.2172        0.8816      -1.0989        -1.2105       0.9933
  105       0.6887        2.4418      -1.7530        -0.3933       1.0820
  107       0.1222        0.0463       0.0758        -0.9940       1.1162
  108       2.2778        0.8120       1.4658         0.5521       1.7257
  109      26.3546       -0.1966      26.5513         0.6059      25.7487
  117       0.0555       -1.1023       1.1578        -0.8042       0.8598
 Sum       30.0387        4.8054      25.2333        -2.4598      32.4985

 Contributions to Isotropic shielding for atom   98 (    32.4609 ppm):
                         Standard Origin              Atomic Origin
 NLMO      Total    Paramagnetic  Diamagnetic   Paramagnetic  Diamagnetic
   71      -0.7132       -0.2152      -0.4980        -1.7229       1.0096
   80       0.0660        0.4794      -0.4134        -1.0198       1.0859
   85       1.3568       -0.5744       1.9312         0.7321       0.6247
  110       1.1394       -0.0767       1.2161         0.3262       0.8132
  111      26.0967        0.2360      25.8606         0.6003      25.4964
  112       1.7180        2.9130      -1.1950        -0.1937       1.9116
  122       0.6087       -0.5391       1.1478         0.1248       0.4839
  124       0.0304       -1.1397       1.1701        -0.5888       0.6192
  125       0.0779       -0.9499       1.0279        -0.5070       0.5850
  193      -0.4610        0.6833      -1.1443         0.3548      -0.8159
 Sum       29.9197        0.8166      29.1030        -1.8940      31.8137

 Contributions to Isotropic shielding for atom   99 (    30.6115 ppm):
                         Standard Origin              Atomic Origin
 NLMO      Total    Paramagnetic  Diamagnetic   Paramagnetic  Diamagnetic
   83      -0.4010        1.1363      -1.5373        -0.7933       0.3923
   89      -0.2209       -0.0803      -0.1406        -1.1008       0.8799
  100      -0.3722        0.1419      -0.5141        -1.2302       0.8580
  110       0.9863        1.1403      -0.1540         0.2610       0.7253
  111       1.6417        2.4125      -0.7707        -0.2696       1.9113
  112      25.6570       -0.1318      25.7889         0.6753      24.9817
  118       0.4419       -1.2802       1.7221        -0.3749       0.8168
  122       1.3039       -1.4208       2.7247         0.2761       1.0278
  123       0.1772       -1.0889       1.2662        -0.6110       0.7882
  124       0.1784       -1.4321       1.6105        -0.5281       0.7065
  125       0.1729       -2.2929       2.4658        -0.6450       0.8179
  193      -0.7269        1.4409      -2.1678         0.3814      -1.1083
  194      -0.8941       -1.4583       0.5643        -0.8672      -0.0268
  195       0.0314        0.0176       0.0138         1.0677      -1.0363
 Sum       27.9757       -2.8959      30.8715        -3.7585      31.7342

 Contributions to Isotropic shielding for atom  100 (    31.5606 ppm):
                         Standard Origin              Atomic Origin
 NLMO      Total    Paramagnetic  Diamagnetic   Paramagnetic  Diamagnetic
   71       0.0792       -0.4399       0.5191        -1.0683       1.1475
   85       0.3736       -0.9221       1.2957        -0.4183       0.7919
  100       1.6377       -1.2086       2.8463         1.1843       0.4535
  110       0.9966       -0.6797       1.6762         0.1728       0.8238
  111       0.1432       -0.9171       1.0603        -0.7459       0.8891
  113      26.2198        0.8946      25.3252         0.5639      25.6558
  114       1.3832        0.4445       0.9387        -0.4578       1.8410
 Sum       30.8333       -2.8282      33.6615        -0.7692      31.6025

 Contributions to Isotropic shielding for atom  101 (    30.8728 ppm):
                         Standard Origin              Atomic Origin
 NLMO      Total    Paramagnetic  Diamagnetic   Paramagnetic  Diamagnetic
  100      -0.1101        1.0703      -1.1804        -0.8774       0.7673
  101      -0.0097        0.0418      -0.0515        -1.0264       1.0167
  110       0.2862        1.8597      -1.5735        -0.6962       0.9824
  112       0.1316       -0.3340       0.4656        -0.8951       1.0266
  113       1.9214       -0.5531       2.4745         0.2271       1.6943
  114      25.8689        0.4558      25.4131         0.9994      24.8696
  195       0.2131       -0.2485       0.4616         1.0416      -0.8285
 Sum       28.3014        2.2920      26.0094        -1.2270      29.5284

 Contributions to Isotropic shielding for atom  102 (    30.1440 ppm):
                         Standard Origin              Atomic Origin
 NLMO      Total    Paramagnetic  Diamagnetic   Paramagnetic  Diamagnetic
   87       0.3981       -0.9091       1.3072         0.2765       0.1217
   89      -0.5530        0.2436      -0.7967        -1.4427       0.8897
   97      -0.2242        1.2080      -1.4322        -1.0308       0.8066
   98       1.8519       -1.3344       3.1862         0.9564       0.8955
  115       0.3236        2.0065      -1.6830        -0.5652       0.8888
  116      25.2785       -0.0445      25.3230         0.6374      24.6411
  117       1.3657        3.1421      -1.7764        -0.5514       1.9171
  118       0.0448       -0.2468       0.2915        -1.1091       1.1539
  120       0.4085       -1.6522       2.0607        -0.4794       0.8879
  121       0.6173       -2.2255       2.8428        -0.9507       1.5680
  191      -0.6778        1.0864      -1.7642         0.1641      -0.8419
 Sum       28.8332        1.2742      27.5590        -4.0950      32.9282

 Contributions to Isotropic shielding for atom  103 (    31.8439 ppm):
                         Standard Origin              Atomic Origin
 NLMO      Total    Paramagnetic  Diamagnetic   Paramagnetic  Diamagnetic
   87       0.3693       -0.8248       1.1941         0.0667       0.3026
   94      -0.3524        1.5786      -1.9310        -1.3087       0.9563
   97      -0.1415        1.2729      -1.4144        -0.7604       0.6189
   98       1.7474       -0.4687       2.2162         0.7619       0.9855
  115       0.4090        3.0327      -2.6238        -0.6864       1.0954
  116       1.7783        3.0656      -1.2874        -0.2606       2.0389
  117      26.7371       -0.4206      27.1578         0.6503      26.0868
  119      -0.1569       -0.8760       0.7190        -1.2787       1.1217
  121       0.3126       -0.8730       1.1855        -0.8933       1.2058
 Sum       30.7028        5.4868      25.2160        -3.7091      34.4119

 Contributions to Isotropic shielding for atom  104 (    31.4546 ppm):
                         Standard Origin              Atomic Origin
 NLMO      Total    Paramagnetic  Diamagnetic   Paramagnetic  Diamagnetic
   81      -0.7253        1.5950      -2.3203        -1.4245       0.6992
   86      -0.3367        1.6378      -1.9745        -1.4784       1.1417
   87       1.5440        0.6251       0.9189         0.5479       0.9961
  115       1.4183        2.1215      -0.7032         0.1844       1.2338
  117      -0.2105        0.4899      -0.7004        -1.3598       1.1492
  118       0.1316        5.5287      -5.3971        -1.0423       1.1738
  119      26.1455       -0.8965      27.0420         0.4200      25.7255
  122       0.2752       -1.1155       1.3907        -0.7926       1.0678
  127      -0.2391       -2.7107       2.4716        -0.7232       0.4841
 Sum       28.0028        7.2751      20.7277        -5.6685      33.6713

 Contributions to Isotropic shielding for atom  105 (    30.6162 ppm):
                         Standard Origin              Atomic Origin
 NLMO      Total    Paramagnetic  Diamagnetic   Paramagnetic  Diamagnetic
  120      -0.5051        0.1704      -0.6755        -1.1520       0.6469
  121      -0.0149        0.6451      -0.6600        -1.0550       1.0401
  122      -0.5917        0.4564      -1.0481        -0.6286       0.0369
  123       1.6483       -1.5794       3.2278        -0.4454       2.0937
  124      25.9960        0.4609      25.5350         0.7058      25.2902
  125       1.3886        0.3557       1.0329        -0.6075       1.9962
  126       0.5839        3.4276      -2.8437        -1.3964       1.9804
  193       0.7888       -0.4184       1.2072         1.2727      -0.4838
 Sum       29.2940        3.5183      25.7757        -3.3065      32.6005

 Contributions to Isotropic shielding for atom  106 (    30.4992 ppm):
                         Standard Origin              Atomic Origin
 NLMO      Total    Paramagnetic  Diamagnetic   Paramagnetic  Diamagnetic
  120      -0.7185        0.2258      -0.9443        -1.6197       0.9012
  121      -0.0344        0.5293      -0.5637        -1.6057       1.5713
  122      -1.3201        1.4419      -2.7621        -2.1563       0.8362
  123       2.5663       -4.3214       6.8877         1.1495       1.4169
  124       1.6483        0.9499       0.6983        -0.3854       2.0336
  125      26.1362        0.9582      25.1780         1.0005      25.1357
  126       0.9200        2.6846      -1.7646        -0.9479       1.8678
 Sum       29.1978        2.4683      26.7295        -4.5649      33.7627

 Contributions to Isotropic shielding for atom  107 (    30.5766 ppm):
                         Standard Origin              Atomic Origin
 NLMO      Total    Paramagnetic  Diamagnetic   Paramagnetic  Diamagnetic
  120      -0.9283        0.5013      -1.4296        -1.8661       0.9378
  121      -0.4086        1.5148      -1.9234        -1.9192       1.5106
  122      -2.0787        1.4658      -3.5445        -2.8406       0.7619
  123       0.9361        1.4279      -0.4918        -0.5501       1.4862
  124       1.2758        3.9943      -2.7185        -0.7555       2.0312
  125       1.2534        2.0229      -0.7694        -0.6173       1.8708
  126      26.6041        0.5492      26.0549         1.3018      25.3022
  191       0.4413       -1.3383       1.7796         1.2044      -0.7630
  192       0.8255        0.7502       0.0754         1.0775      -0.2520
  193       1.5406       -1.6220       3.1626         1.6045      -0.0639
  194       0.3166        1.3564      -1.0398        -0.1400       0.4566
 Sum       29.7779       10.6224      19.1555        -3.5005      33.2784

 Contributions to Isotropic shielding for atom  108 (    31.3026 ppm):
                         Standard Origin              Atomic Origin
 NLMO      Total    Paramagnetic  Diamagnetic   Paramagnetic  Diamagnetic
   76      -0.6032        0.0641      -0.6674        -1.4441       0.8408
   81      -0.5496        1.3201      -1.8697        -1.2885       0.7389
   82       1.3229       -0.4989       1.8218         0.1062       1.2167
   86      -0.1777        0.9309      -1.1086        -0.9448       0.7671
   87      -0.2918        1.3127      -1.6045        -1.1949       0.9031
  127      26.0597        0.1359      25.9238         0.6301      25.4296
  128       1.5245        4.0855      -2.5610        -0.4628       1.9873
  129       1.4913        1.3840       0.1072        -0.3215       1.8128
  190       1.1029       -0.0082       1.1111         1.0926       0.0103
 Sum       29.8788        8.7260      21.1528        -3.8277      33.7065

 Contributions to Isotropic shielding for atom  109 (    30.6798 ppm):
                         Standard Origin              Atomic Origin
 NLMO      Total    Paramagnetic  Diamagnetic   Paramagnetic  Diamagnetic
   75      -0.6063        0.8818      -1.4881        -1.3167       0.7104
   76      -1.0705        0.3524      -1.4229        -2.4279       1.3574
   79      -0.5420        1.0791      -1.6211        -1.1769       0.6349
   82       1.4285       -0.3169       1.7454         0.2054       1.2231
  127       1.5277        4.0508      -2.5231        -0.4416       1.9693
  128      26.0077        0.1102      25.8976         0.6754      25.3323
  129       1.5391        1.5886      -0.0495        -0.2619       1.8010
 Sum       28.2843        7.7460      20.5382        -4.7442      33.0284

 Contributions to Isotropic shielding for atom  110 (    31.9259 ppm):
                         Standard Origin              Atomic Origin
 NLMO      Total    Paramagnetic  Diamagnetic   Paramagnetic  Diamagnetic
   75      -0.3341        0.7428      -1.0769        -0.9411       0.6071
   76      -0.9733        0.0877      -1.0610        -2.1520       1.1787
   79      -0.4604        0.8815      -1.3419        -1.0123       0.5519
   82       2.0580       -3.2112       5.2692         1.2860       0.7720
   86      -0.2720        0.8362      -1.1082        -1.3451       1.0731
   92      -0.0352        1.2207      -1.2558        -0.8846       0.8495
  127       1.8183        2.3244      -0.5060        -0.0835       1.9019
  128       1.8158        2.5725      -0.7567        -0.0830       1.8989
  129      26.5745        0.7818      25.7927         0.8538      25.7207
 Sum       30.1916        6.2363      23.9554        -4.3620      34.5536
 
 1\1\GINC-PCSN02\SP\RHF\STO-3G\C45H56N4O5\ABENIDD\30-May-2024\0\\# nmr=
 giao hf/sto-3g pop=nbo geom=connectivity\\Pleiokomenine_C_2\\0,1\C,0,0
 .,0.,0.\C,0,1.4015,0.,0.\C,0,2.0953,1.2284,0.\C,0,1.4106,2.4507,-0.006
 9\C,0,0.0268,2.4437,-0.0052\C,0,-0.6615,1.2182,0.0221\N,0,-0.8561,3.55
 64,-0.0189\C,0,-2.1357,1.4967,0.1757\C,0,-2.1386,2.9448,-0.4524\C,0,-3
 .1739,0.627,-0.5457\C,0,-2.15,2.8141,-2.0372\C,0,-3.4157,2.0973,-2.526
 5\C,0,-4.1857,1.5488,-1.3086\N,0,-3.7413,-0.2224,0.5057\C,0,-4.9837,-0
 .8937,0.1481\C,0,-6.0193,-0.0158,-0.5543\C,0,-5.4082,0.7274,-1.7423\C,
 0,-2.4524,1.3106,1.6812\C,0,-3.765,0.5411,1.7432\C,0,-4.6301,2.8125,-0
 .4952\C,0,-3.4262,3.7218,-0.1272\C,0,-3.5446,4.2973,1.2729\O,0,-4.2715
 ,3.8584,2.1556\O,0,-2.782,5.4197,1.3971\C,0,-2.8158,6.0103,2.6962\C,0,
 -0.3574,4.7785,-0.6315\C,0,2.1623,-1.3065,0.0993\C,0,2.5997,-1.6526,1.
 5096\C,0,1.6913,-1.5861,2.5763\C,0,3.9181,-2.0953,1.7552\C,0,4.3521,-2
 .4272,3.0474\C,0,3.4636,-2.3079,4.0992\C,0,2.1342,-1.9065,3.8481\N,0,3
 .7006,-2.501,5.4888\C,0,1.3717,-1.9814,5.1514\C,0,2.5984,-1.704,6.0876
 \C,0,0.2838,-0.987,5.52\C,0,3.0186,-0.1468,5.9672\C,0,1.8305,0.7891,6.
 204\C,0,0.6278,-0.0413,6.6802\N,0,-0.9441,-1.8192,5.8483\C,0,-2.1315,-
 0.9161,5.8115\C,0,-1.9697,0.1377,6.9258\C,0,-0.6041,0.8637,6.9314\C,0,
 0.6146,-3.3361,5.0517\C,0,-0.8527,-2.9113,4.8493\C,0,1.1449,-0.8077,7.
 9471\C,0,2.2747,-1.8441,7.593\C,0,1.9922,-3.2122,8.1928\O,0,1.4639,-3.
 3721,9.2891\O,0,2.541,-4.2225,7.4704\C,0,2.3311,-5.5213,8.0222\C,0,5.0
 644,-2.393,5.9717\O,0,-0.9269,-2.4351,7.0732\H,0,-0.5617,-0.9292,0.041
 6\H,0,3.1834,1.235,0.0267\H,0,1.9709,3.3784,0.0032\H,0,-2.6884,-0.0397
 ,-1.2714\H,0,-1.2696,2.2737,-2.407\H,0,-2.0997,3.805,-2.5067\H,0,-4.04
 15,2.7926,-3.1001\H,0,-3.1384,1.292,-3.218\H,0,-4.7288,-1.7228,-0.5248
 \H,0,-5.4325,-1.364,1.0316\H,0,-6.8438,-0.6451,-0.9096\H,0,-6.4566,0.6
 924,0.1578\H,0,-5.1134,-0.0061,-2.504\H,0,-6.1656,1.3711,-2.2051\H,0,-
 1.691,0.687,2.1731\H,0,-2.4704,2.2353,2.2567\H,0,-3.786,-0.1188,2.6172
 \H,0,-4.622,1.2113,1.8218\H,0,-5.2186,2.5362,0.3798\H,0,-5.3231,3.4056
 ,-1.1094\H,0,-3.4921,4.602,-0.7853\H,0,-2.1367,6.8673,2.6962\H,0,-3.82
 43,6.3667,2.9273\H,0,-2.4724,5.2972,3.4524\H,0,0.0586,4.5982,-1.6292\H
 ,0,0.4182,5.2315,-0.0047\H,0,-1.1584,5.5173,-0.7315\H,0,1.5495,-2.1307
 ,-0.2878\H,0,3.034,-1.2455,-0.5652\H,0,0.6603,-1.2933,2.4124\H,0,4.625
 3,-2.1797,0.9323\H,0,5.3731,-2.7544,3.2056\H,0,0.0066,-0.4047,4.6284\H
 ,0,3.4707,0.1051,5.0001\H,0,3.8047,0.0759,6.702\H,0,2.0995,1.5582,6.93
 85\H,0,1.5925,1.3214,5.274\H,0,-3.0155,-1.5418,5.9731\H,0,-2.1787,-0.4
 642,4.8155\H,0,-2.7738,0.8779,6.8418\H,0,-2.1026,-0.3462,7.9016\H,0,-0
 .6474,1.6248,6.1402\H,0,-0.4862,1.4124,7.8735\H,0,0.933,-3.9952,4.2358
 \H,0,0.6944,-3.9177,5.9702\H,0,-1.054,-2.4865,3.8608\H,0,-1.5771,-3.69
 12,5.1009\H,0,0.3294,-1.2567,8.5185\H,0,1.5724,-0.0722,8.6445\H,0,3.17
 21,-1.5364,8.1519\H,0,2.749,-6.2552,7.3276\H,0,1.2617,-5.7254,8.1367\H
 ,0,2.8504,-5.6168,8.9807\H,0,5.0924,-2.4928,7.0613\H,0,5.6819,-3.2008,
 5.5644\H,0,5.5221,-1.4344,5.7046\\Version=ES64L-G16RevB.01\State=1-A\H
 F=-2300.1989927\RMSD=3.911e-09\Dipole=0.0403883,1.5559757,-1.9557724\Q
 uadrupole=9.4264689,4.8647691,-14.291238,-2.7960537,10.1763563,8.02248
 43\PG=C01 [X(C45H56N4O5)]\\@


 IT IS NOT EASY TO DESCRIBE
     THE SEA WITH THE MOUTH

                   -- KOKYU
 Job cpu time:       0 days  0 hours 11 minutes 48.4 seconds.
 Elapsed time:       0 days  0 hours  1 minutes 58.3 seconds.
 File lengths (MBytes):  RWF=     67 Int=      0 D2E=      0 Chk=     10 Scr=      1
 Normal termination of Gaussian 16 at Thu May 30 10:15:03 2024.
