 Entering Gaussian System, Link 0=g16
 Input=2_pleiokomenine_2a_c_21.gjf
 Output=2_pleiokomenine_2a_c_21.log
 Initial command:
 /opt/gaussian/g16/l1.exe "/data/abenidd/Elvis/pleiokomenine_C/NMR_HF/2a/2_pleiokomenine_2a_c_21/Gau-27967.inp" -scrdir="/data/abenidd/Elvis/pleiokomenine_C/NMR_HF/2a/2_pleiokomenine_2a_c_21/"
 Entering Link 1 = /opt/gaussian/g16/l1.exe PID=     27969.
  
 Copyright (c) 1988-2017, Gaussian, Inc.  All Rights Reserved.
  
 This is part of the Gaussian(R) 16 program.  It is based on
 the Gaussian(R) 09 system (copyright 2009, Gaussian, Inc.),
 the Gaussian(R) 03 system (copyright 2003, Gaussian, Inc.),
 the Gaussian(R) 98 system (copyright 1998, Gaussian, Inc.),
 the Gaussian(R) 94 system (copyright 1995, Gaussian, Inc.),
 the Gaussian 92(TM) system (copyright 1992, Gaussian, Inc.),
 the Gaussian 90(TM) system (copyright 1990, Gaussian, Inc.),
 the Gaussian 88(TM) system (copyright 1988, Gaussian, Inc.),
 the Gaussian 86(TM) system (copyright 1986, Carnegie Mellon
 University), and the Gaussian 82(TM) system (copyright 1983,
 Carnegie Mellon University). Gaussian is a federally registered
 trademark of Gaussian, Inc.
  
 This software contains proprietary and confidential information,
 including trade secrets, belonging to Gaussian, Inc.
  
 This software is provided under written license and may be
 used, copied, transmitted, or stored only in accord with that
 written license.
  
 The following legend is applicable only to US Government
 contracts under FAR:
  
                    RESTRICTED RIGHTS LEGEND
  
 Use, reproduction and disclosure by the US Government is
 subject to restrictions as set forth in subparagraphs (a)
 and (c) of the Commercial Computer Software - Restricted
 Rights clause in FAR 52.227-19.
  
 Gaussian, Inc.
 340 Quinnipiac St., Bldg. 40, Wallingford CT 06492
  
  
 ---------------------------------------------------------------
 Warning -- This program may not be used in any manner that
 competes with the business of Gaussian, Inc. or will provide
 assistance to any competitor of Gaussian, Inc.  The licensee
 of this program is prohibited from giving any competitor of
 Gaussian, Inc. access to this program.  By using this program,
 the user acknowledges that Gaussian, Inc. is engaged in the
 business of creating and licensing software in the field of
 computational chemistry and represents and warrants to the
 licensee that it is not a competitor of Gaussian, Inc. and that
 it will not use this program in any manner prohibited above.
 ---------------------------------------------------------------
  

 Cite this work as:
 Gaussian 16, Revision B.01,
 M. J. Frisch, G. W. Trucks, H. B. Schlegel, G. E. Scuseria, 
 M. A. Robb, J. R. Cheeseman, G. Scalmani, V. Barone, 
 G. A. Petersson, H. Nakatsuji, X. Li, M. Caricato, A. V. Marenich, 
 J. Bloino, B. G. Janesko, R. Gomperts, B. Mennucci, H. P. Hratchian, 
 J. V. Ortiz, A. F. Izmaylov, J. L. Sonnenberg, D. Williams-Young, 
 F. Ding, F. Lipparini, F. Egidi, J. Goings, B. Peng, A. Petrone, 
 T. Henderson, D. Ranasinghe, V. G. Zakrzewski, J. Gao, N. Rega, 
 G. Zheng, W. Liang, M. Hada, M. Ehara, K. Toyota, R. Fukuda, 
 J. Hasegawa, M. Ishida, T. Nakajima, Y. Honda, O. Kitao, H. Nakai, 
 T. Vreven, K. Throssell, J. A. Montgomery, Jr., J. E. Peralta, 
 F. Ogliaro, M. J. Bearpark, J. J. Heyd, E. N. Brothers, K. N. Kudin, 
 V. N. Staroverov, T. A. Keith, R. Kobayashi, J. Normand, 
 K. Raghavachari, A. P. Rendell, J. C. Burant, S. S. Iyengar, 
 J. Tomasi, M. Cossi, J. M. Millam, M. Klene, C. Adamo, R. Cammi, 
 J. W. Ochterski, R. L. Martin, K. Morokuma, O. Farkas, 
 J. B. Foresman, and D. J. Fox, Gaussian, Inc., Wallingford CT, 2016.
 
 ******************************************
 Gaussian 16:  ES64L-G16RevB.01 20-Dec-2017
                30-May-2024 
 ******************************************
 %nprocshared=8
 Will use up to    8 processors via shared memory.
 ----------------------------------------------
 # nmr=giao hf/sto-3g pop=nbo geom=connectivity
 ----------------------------------------------
 1/38=1,57=2,172=1/1;
 2/12=2,17=6,18=5,40=1/2;
 3/6=3,11=9,25=1,30=1/1,2,3,8;
 4//1;
 5/5=2,38=5/2;
 8/6=1,10=90,11=11/1;
 10/13=100,45=16/2;
 6/7=2,8=2,9=2,10=2,28=1,40=1,64=1/1,7;
 99/9=1/99;
 -----------------
 Pleiokomenine_C_2
 -----------------
 Symbolic Z-matrix:
 Charge =  0 Multiplicity = 1
 C                     0.        0.        0. 
 C                     1.4024    0.        0. 
 C                     2.1012    1.2266    0. 
 C                     1.4217    2.4508   -0.0013 
 C                     0.0385    2.4459    0.003 
 C                    -0.6576    1.2195    0.0234 
 N                    -0.8438    3.5639   -0.0051 
 C                    -2.1262    1.5216    0.1959 
 C                    -2.1177    2.9493   -0.4623 
 C                    -3.2089    0.6738   -0.4717 
 C                    -2.0606    2.7889   -2.0494 
 C                    -3.2479    1.9829   -2.5806 
 C                    -4.1129    1.5119   -1.4052 
 N                    -4.0562    0.2416    0.6392 
 C                    -5.0072   -0.7769    0.257 
 C                    -5.9828   -0.1344   -0.7438 
 C                    -5.2765    0.6145   -1.8896 
 C                    -2.393     1.3302    1.7147 
 C                    -3.203     0.0333    1.782 
 C                    -4.6183    2.8016   -0.6658 
 C                    -3.4331    3.7203   -0.2232 
 C                    -3.6427    4.3179    1.1586 
 O                    -4.521     3.9925    1.9472 
 O                    -2.7712    5.3433    1.3768 
 C                    -2.8979    5.9586    2.6582 
 C                    -0.3403    4.7875   -0.6113 
 C                     2.1618   -1.3069    0.1107 
 C                     2.6047   -1.6695    1.5172 
 C                     1.8673   -1.2834    2.6466 
 C                     3.7486   -2.4817    1.6921 
 C                     4.1876   -2.8733    2.9658 
 C                     3.4791   -2.4484    4.0727 
 C                     2.313    -1.6726    3.8985 
 N                     3.7711   -2.6533    5.4479 
 C                     1.6833   -1.474     5.259 
 C                     3.0191   -1.543     6.0797 
 C                     0.9722   -0.1921    5.6565 
 C                     3.8695   -0.1916    5.8357 
 C                     3.0339    1.0654    6.092 
 C                     1.692     0.6527    6.7174 
 N                    -0.4033   -0.6148    6.1481 
 C                    -1.2763    0.5964    6.1575 
 C                    -0.7       1.5993    7.1774 
 C                     0.8095    1.8914    7.0092 
 C                     0.5565   -2.547     5.2974 
 C                    -0.7373   -1.7166    5.2124 
 C                     2.0787   -0.1837    7.9856 
 C                     2.8018   -1.5315    7.61 
 C                     2.1758   -2.7746    8.2246 
 O                     2.2001   -3.8982    7.7396 
 O                     1.7217   -2.5075    9.4849 
 C                     1.0631   -3.6078    10.1093 
 C                     5.1322   -2.972     5.8304 
 O                    -0.439    -1.1654    7.4058 
 H                    -0.5554   -0.9319    0.0432 
 H                     3.1895    1.2289    0.0252 
 H                     1.984     3.3773    0.0098 
 H                    -2.7692   -0.1841   -0.9985 
 H                    -1.1327    2.3105   -2.3864 
 H                    -2.0582    3.777    -2.5286 
 H                    -3.8365    2.5971   -3.2734 
 H                    -2.8785    1.1287   -3.1619 
 H                    -4.512    -1.6487   -0.1867 
 H                    -5.5762   -1.1251    1.1263 
 H                    -6.6411   -0.9049   -1.1614 
 H                    -6.6311    0.5716   -0.2088 
 H                    -4.8836   -0.1369   -2.5875 
 H                    -6.0105    1.2054   -2.4503 
 H                    -1.4921    1.2486    2.3348 
 H                    -2.9862    2.1387    2.1377 
 H                    -2.5646   -0.8507    1.6739 
 H                    -3.7607   -0.0364    2.7206 
 H                    -5.2551    2.5314    0.1828 
 H                    -5.2668    3.3745   -1.3427 
 H                    -3.4615    4.5958   -0.8901 
 H                    -2.7412    5.2248    3.4552 
 H                    -3.8771    6.4372    2.7569 
 H                    -2.126     6.7286    2.7416 
 H                     0.0843    4.6105   -1.6059 
 H                     0.4301    5.2386    0.0233 
 H                    -1.1404    5.5265   -0.7164 
 H                     1.5458   -2.1273   -0.2794 
 H                     3.0389   -1.2432   -0.5468 
 H                     0.9577   -0.7013    2.5526 
 H                     4.3122   -2.8181    0.8236 
 H                     5.0727   -3.4908    3.066 
 H                     0.7834    0.4122    4.7565 
 H                     4.2963   -0.1249    4.8275 
 H                     4.743    -0.1873    6.5024 
 H                     3.5835    1.754     6.7455 
 H                     2.8743    1.5992    5.1462 
 H                    -2.2808    0.265     6.4408 
 H                    -1.2974    1.0029    5.141 
 H                    -0.8622    1.2145    8.192 
 H                    -1.2606    2.5392    7.1155 
 H                     0.9054    2.596     6.1717 
 H                     1.1796    2.4211    7.8952 
 H                     0.5822   -3.2852    4.4874 
 H                     0.5564   -3.1118    6.229 
 H                    -0.9123   -1.2815    4.2233 
 H                    -1.6248   -2.2416    5.577 
 H                     1.2258   -0.3257    8.652 
 H                     2.7785    0.4121    8.5903 
 H                     3.7898   -1.503     8.0946 
 H                     1.7778   -4.41      10.3175 
 H                     0.6477   -3.2594    11.0589 
 H                     0.2398   -3.9724    9.4866 
 H                     5.2146   -3.0507    6.9189 
 H                     5.4317   -3.9419    5.4192 
 H                     5.8432   -2.2124    5.4882 
 
 Stoichiometry    C45H56N4O5
 Framework group  C1[X(C45H56N4O5)]
 Deg. of freedom   324
 Full point group                 C1      NOp   1
 Largest Abelian subgroup         C1      NOp   1
 Largest concise Abelian subgroup C1      NOp   1
                         Standard orientation:                         
 ---------------------------------------------------------------------
 Center     Atomic      Atomic             Coordinates (Angstroms)
 Number     Number       Type             X           Y           Z
 ---------------------------------------------------------------------
      1          6           0        1.915623    2.335523    0.455159
      2          6           0        1.147558    3.236241   -0.296845
      3          6           0        1.290492    3.274012   -1.700772
      4          6           0        2.188196    2.428244   -2.363486
      5          6           0        2.940555    1.538535   -1.618062
      6          6           0        2.781569    1.488368   -0.217621
      7          7           0        3.908705    0.602791   -2.082296
      8          6           0        3.591393    0.324983    0.300576
      9          6           0        4.671558    0.305730   -0.841572
     10          6           0        4.300789    0.373909    1.653742
     11          6           0        5.712051    1.490208   -0.592053
     12          6           0        6.398629    1.363919    0.769619
     13          6           0        5.825874    0.155941    1.520868
     14          7           0        3.781318   -0.791240    2.368858
     15          6           0        4.140342   -0.797262    3.768460
     16          6           0        5.669180   -0.949275    3.844275
     17          6           0        6.426672    0.043242    2.942232
     18          6           0        2.564068   -0.829205    0.464955
     19          6           0        2.403547   -0.961231    1.981327
     20          6           0        6.124024   -1.110552    0.641909
     21          6           0        5.550562   -0.962303   -0.805076
     22          6           0        4.928479   -2.249716   -1.320837
     23          8           0        4.703362   -3.248391   -0.649154
     24          8           0        4.733805   -2.184015   -2.668559
     25          6           0        4.146053   -3.354906   -3.234418
     26          6           0        4.592935    0.934011   -3.323388
     27          6           0        0.092038    4.085626    0.382384
     28          6           0       -1.316642    3.522040    0.320153
     29          6           0       -1.558920    2.140503    0.288024
     30          6           0       -2.416879    4.408343    0.372224
     31          6           0       -3.740420    3.943515    0.348596
     32          6           0       -3.965730    2.583047    0.270477
     33          6           0       -2.869436    1.694201    0.260789
     34          7           0       -5.201691    1.891272    0.159710
     35          6           0       -3.417122    0.285363    0.307041
     36          6           0       -4.768043    0.600687   -0.426617
     37          6           0       -2.763965   -0.874946   -0.423716
     38          6           0       -4.479314    0.862203   -1.994177
     39          6           0       -3.667175   -0.272389   -2.624332
     40          6           0       -3.558522   -1.427064   -1.615836
     41          7           0       -2.545046   -1.955616    0.623458
     42          6           0       -1.554626   -2.928683    0.074430
     43          6           0       -2.173376   -3.597685   -1.169640
     44          6           0       -2.754050   -2.610118   -2.208743
     45          6           0       -3.287419   -0.105243    1.808070
     46          6           0       -2.161888   -1.155893    1.812864
     47          6           0       -5.040083   -1.772634   -1.237693
     48          6           0       -5.743791   -0.597631   -0.460084
     49          6           0       -6.375323   -1.006784    0.862288
     50          8           0       -6.521618   -0.280317    1.836523
     51          8           0       -6.917821   -2.256723    0.766091
     52          6           0       -7.477346   -2.741424    1.985225
     53          6           0       -6.358581    2.608592   -0.337811
     54          8           0       -3.665244   -2.661018    0.989257
     55          1           0        1.789400    2.261316    1.530953
     56          1           0        0.677330    3.954852   -2.288588
     57          1           0        2.269305    2.471260   -3.443430
     58          1           0        4.070891    1.306951    2.186119
     59          1           0        5.241016    2.478795   -0.657297
     60          1           0        6.478538    1.490959   -1.378487
     61          1           0        7.482056    1.257630    0.633415
     62          1           0        6.247982    2.288138    1.341587
     63          1           0        3.814374    0.118800    4.275119
     64          1           0        3.678065   -1.645271    4.286018
     65          1           0        5.999615   -0.826010    4.882079
     66          1           0        5.942336   -1.971044    3.550458
     67          1           0        6.390999    1.028483    3.426034
     68          1           0        7.484819   -0.239687    2.891431
     69          1           0        1.590085   -0.650700   -0.006529
     70          1           0        2.931456   -1.772727    0.065858
     71          1           0        1.752758   -0.180451    2.390658
     72          1           0        2.004632   -1.943083    2.252787
     73          1           0        5.747182   -2.013977    1.132274
     74          1           0        7.211132   -1.252434    0.571021
     75          1           0        6.420546   -0.814211   -1.463300
     76          1           0        3.173035   -3.557763   -2.775820
     77          1           0        4.816514   -4.212238   -3.119979
     78          1           0        3.993346   -3.174664   -4.302069
     79          1           0        4.999266    1.951651   -3.311341
     80          1           0        3.908290    0.840191   -4.173202
     81          1           0        5.423352    0.244934   -3.504794
     82          1           0        0.358160    4.233825    1.436854
     83          1           0        0.111452    5.080856   -0.081091
     84          1           0       -0.743747    1.426025    0.295968
     85          1           0       -2.245601    5.481750    0.431920
     86          1           0       -4.561801    4.649846    0.382924
     87          1           0       -1.754846   -0.578307   -0.746994
     88          1           0       -3.959978    1.808966   -2.186545
     89          1           0       -5.434966    0.962201   -2.527319
     90          1           0       -4.142695   -0.600639   -3.556761
     91          1           0       -2.671348    0.098202   -2.899913
     92          1           0       -1.350084   -3.658077    0.865159
     93          1           0       -0.638401   -2.377742   -0.162120
     94          1           0       -2.978547   -4.272316   -0.852834
     95          1           0       -1.419078   -4.230041   -1.652005
     96          1           0       -1.902785   -2.207320   -2.774576
     97          1           0       -3.366433   -3.160678   -2.932912
     98          1           0       -3.035772    0.717008    2.487979
     99          1           0       -4.198861   -0.558227    2.196600
    100          1           0       -1.168809   -0.732270    1.632328
    101          1           0       -2.162813   -1.801308    2.695844
    102          1           0       -5.112702   -2.732217   -0.722311
    103          1           0       -5.602565   -1.939678   -2.168322
    104          1           0       -6.620922   -0.306674   -1.058230
    105          1           0       -8.362163   -2.157090    2.255999
    106          1           0       -7.782926   -3.779574    1.828553
    107          1           0       -6.735211   -2.718771    2.789734
    108          1           0       -7.219642    1.937540   -0.415784
    109          1           0       -6.642763    3.409432    0.353121
    110          1           0       -6.176552    3.046588   -1.325049
 ---------------------------------------------------------------------
 Rotational constants (GHZ):           0.0948029           0.0316285           0.0294735
 Standard basis: STO-3G (5D, 7F)
 There are   326 symmetry adapted cartesian basis functions of A   symmetry.
 There are   326 symmetry adapted basis functions of A   symmetry.
   326 basis functions,   978 primitive gaussians,   326 cartesian basis functions
   197 alpha electrons      197 beta electrons
       nuclear repulsion energy      8102.0533939631 Hartrees.
 NAtoms=  110 NActive=  110 NUniq=  110 SFac= 1.00D+00 NAtFMM=   60 NAOKFM=T Big=T
 Integral buffers will be    131072 words long.
 Raffenetti 1 integral format.
 Two-electron integral symmetry is turned on.
 One-electron integrals computed using PRISM.
 NBasis=   326 RedAO= T EigKep=  1.73D-01  NBF=   326
 NBsUse=   326 1.00D-06 EigRej= -1.00D+00 NBFU=   326
 ExpMin= 1.69D-01 ExpMax= 1.31D+02 ExpMxC= 1.31D+02 IAcc=3 IRadAn=         5 AccDes= 0.00D+00
 Harris functional with IExCor=  205 and IRadAn=       5 diagonalized for initial guess.
 HarFok:  IExCor=  205 AccDes= 0.00D+00 IRadAn=         5 IDoV= 1 UseB2=F ITyADJ=14
 ICtDFT=  3500011 ScaDFX=  1.000000  1.000000  1.000000  1.000000
 FoFCou: FMM=F IPFlag=           0 FMFlag=      100000 FMFlg1=        2001
         NFxFlg=           0 DoJE=T BraDBF=F KetDBF=T FulRan=T
         wScrn=  0.000000 ICntrl=       500 IOpCl=  0 I1Cent=   200000004 NGrid=           0
         NMat0=    1 NMatS0=      1 NMatT0=    0 NMatD0=    1 NMtDS0=    0 NMtDT0=    0
 Petite list used in FoFCou.
 Requested convergence on RMS density matrix=1.00D-08 within 128 cycles.
 Requested convergence on MAX density matrix=1.00D-06.
 Requested convergence on             energy=1.00D-06.
 No special actions if energy rises.
 Integral accuracy reduced to 1.0D-05 until final iterations.
 Initial convergence to 1.0D-05 achieved.  Increase integral accuracy.
 SCF Done:  E(RHF) =  -2300.19688185     A.U. after   16 cycles
            NFock= 16  Conv=0.39D-08     -V/T= 2.0093
 Range of M.O.s used for correlation:     1   326
 NBasis=   326 NAE=   197 NBE=   197 NFC=     0 NFV=     0
 NROrb=    326 NOA=   197 NOB=   197 NVA=   129 NVB=   129
          Differentiating once with respect to magnetic field using GIAOs.
          Electric field/nuclear overlap derivatives assumed to be zero.
 FoFCou: FMM=F IPFlag=           0 FMFlag=      100000 FMFlg1=        2001
         NFxFlg=           0 DoJE=F BraDBF=F KetDBF=T FulRan=T
         wScrn=  0.000000 ICntrl=      6100 IOpCl=  0 I1Cent=           7 NGrid=         110
         NMat0=    1 NMatS0=      1 NMatT0=    0 NMatD0=    1 NMtDS0=    0 NMtDT0=    0
 Symmetry not used in FoFCou.
 FoFJK:  IHMeth= 1 ICntrl=    6127 DoSepK=F KAlg= 0 I1Cent=           0 FoldK=F
 IRaf=         1 NMat=       1 IRICut=       1 DoRegI=T DoRafI=F ISym2E= 0 IDoP0=0 IntGTp=1.
          There are     3 degrees of freedom in the 1st order CPHF.  IDoFFX=0 NUNeed=     3.
      3 vectors produced by pass  0 Test12= 8.47D-13 3.33D-08 XBig12= 1.85D+02 2.19D+00.
 AX will form     3 AO Fock derivatives at one time.
      3 vectors produced by pass  1 Test12= 8.47D-13 3.33D-08 XBig12= 7.96D-01 2.61D-01.
      3 vectors produced by pass  2 Test12= 8.47D-13 3.33D-08 XBig12= 2.03D-02 3.50D-02.
      3 vectors produced by pass  3 Test12= 8.47D-13 3.33D-08 XBig12= 5.93D-04 1.02D-02.
      3 vectors produced by pass  4 Test12= 8.47D-13 3.33D-08 XBig12= 2.21D-05 1.12D-03.
      3 vectors produced by pass  5 Test12= 8.47D-13 3.33D-08 XBig12= 4.03D-07 1.02D-04.
      3 vectors produced by pass  6 Test12= 8.47D-13 3.33D-08 XBig12= 1.65D-08 2.93D-05.
      3 vectors produced by pass  7 Test12= 8.47D-13 3.33D-08 XBig12= 3.81D-10 4.15D-06.
      3 vectors produced by pass  8 Test12= 8.47D-13 3.33D-08 XBig12= 6.45D-12 3.33D-07.
      2 vectors produced by pass  9 Test12= 8.47D-13 3.33D-08 XBig12= 1.38D-13 6.84D-08.
 InvSVY:  IOpt=1 It=  1 EMax= 3.55D-15
 Solved reduced A of dimension    29 with     3 vectors.
 Calculating GIAO nuclear magnetic shielding tensors.
 SCF GIAO Magnetic shielding tensor (ppm):
      1  C    Isotropic =   125.4817   Anisotropy =   148.4673
   XX=   174.0353   YX=    51.5187   ZX=    25.2914
   XY=    47.2419   YY=   167.7188   ZY=    26.0792
   XZ=    16.9569   YZ=    10.4382   ZZ=    34.6911
   Eigenvalues:    30.5758   121.4095   224.4599
      2  C    Isotropic =   118.9703   Anisotropy =   163.7841
   XX=   129.5432   YX=    91.1727   ZX=    28.2102
   XY=    85.3694   YY=   144.9818   ZY=     3.9628
   XZ=    26.1655   YZ=    -4.6260   ZZ=    82.3858
   Eigenvalues:    38.8270    89.9242   228.1597
      3  C    Isotropic =   118.9921   Anisotropy =   157.8198
   XX=   133.4202   YX=    94.7207   ZX=   -15.4271
   XY=    81.0267   YY=   137.4724   ZY=    30.2640
   XZ=   -21.4631   YZ=    35.4696   ZZ=    86.0838
   Eigenvalues:    25.6892   107.0819   224.2054
      4  C    Isotropic =   133.1602   Anisotropy =   145.8582
   XX=   179.5060   YX=    53.0102   ZX=    12.8165
   XY=    56.2789   YY=   169.4621   ZY=     5.5769
   XZ=     7.5426   YZ=    12.6990   ZZ=    50.5126
   Eigenvalues:    49.4723   119.6094   230.3990
      5  C    Isotropic =   108.0857   Anisotropy =   130.5222
   XX=   133.2082   YX=    61.3168   ZX=    24.7328
   XY=    75.3855   YY=   114.3967   ZY=     0.9278
   XZ=    29.1467   YZ=   -13.2249   ZZ=    76.6523
   Eigenvalues:    40.3654    88.7912   195.1005
      6  C    Isotropic =   117.2796   Anisotropy =   144.4886
   XX=   152.6593   YX=    73.2318   ZX=    -1.6192
   XY=    73.8570   YY=   122.8773   ZY=    15.2154
   XZ=    -5.9830   YZ=    26.9142   ZZ=    76.3022
   Eigenvalues:    49.3918    88.8417   213.6053
      7  N    Isotropic =   272.5107   Anisotropy =    82.6904
   XX=   306.8648   YX=   -28.7753   ZX=    -8.8753
   XY=   -41.3575   YY=   266.9148   ZY=    12.6107
   XZ=     3.8819   YZ=     1.5604   ZZ=   243.7526
   Eigenvalues:   239.8354   250.0591   327.6376
      8  C    Isotropic =   198.0988   Anisotropy =    11.6471
   XX=   193.4791   YX=     3.9870   ZX=    -3.8195
   XY=     3.6277   YY=   195.1675   ZY=    -3.8407
   XZ=     0.5790   YZ=     4.5825   ZZ=   205.6499
   Eigenvalues:   190.2773   198.1556   205.8636
      9  C    Isotropic =   180.2370   Anisotropy =    43.5742
   XX=   174.3912   YX=   -23.7222   ZX=     7.2653
   XY=    -5.1257   YY=   160.6700   ZY=    -1.6867
   XZ=    10.5092   YZ=    -6.2729   ZZ=   205.6499
   Eigenvalues:   151.5209   179.9036   209.2865
     10  C    Isotropic =   189.6052   Anisotropy =    32.3150
   XX=   185.4779   YX=    10.0577   ZX=    -7.6064
   XY=    16.2430   YY=   187.1674   ZY=   -11.5113
   XZ=    -4.3558   YZ=   -12.9721   ZZ=   196.1702
   Eigenvalues:   172.2368   185.4302   211.1485
     11  C    Isotropic =   212.7972   Anisotropy =    21.4491
   XX=   215.5417   YX=    10.4386   ZX=     4.7102
   XY=    11.4103   YY=   215.2935   ZY=    -3.7132
   XZ=     4.5844   YZ=     5.1357   ZZ=   207.5565
   Eigenvalues:   202.6968   208.5982   227.0966
     12  C    Isotropic =   214.4913   Anisotropy =    19.1986
   XX=   207.6498   YX=     5.9182   ZX=    -0.3743
   XY=     7.0849   YY=   217.5730   ZY=    -7.3084
   XZ=     0.6866   YZ=    -9.3327   ZZ=   218.2512
   Eigenvalues:   203.2046   212.9789   227.2904
     13  C    Isotropic =   210.8652   Anisotropy =     8.3495
   XX=   211.7128   YX=    -1.0665   ZX=     3.7504
   XY=     1.4671   YY=   208.5416   ZY=    -0.0179
   XZ=     4.6791   YZ=     2.8643   ZZ=   212.3413
   Eigenvalues:   207.2218   208.9423   216.4316
     14  N    Isotropic =   301.2085   Anisotropy =    59.5481
   XX=   309.9622   YX=    35.2078   ZX=     9.3368
   XY=    34.3243   YY=   277.9112   ZY=   -38.4400
   XZ=     8.6453   YZ=   -28.2215   ZZ=   315.7520
   Eigenvalues:   240.9373   321.7809   340.9072
     15  C    Isotropic =   202.4690   Anisotropy =    40.0859
   XX=   196.8578   YX=    -3.6229   ZX=    12.8786
   XY=    -2.6232   YY=   186.8480   ZY=    -4.0215
   XZ=    12.4213   YZ=    -3.0893   ZZ=   223.7013
   Eigenvalues:   185.9533   192.2608   229.1929
     16  C    Isotropic =   219.5137   Anisotropy =    10.2916
   XX=   225.9856   YX=     0.0763   ZX=     1.8687
   XY=     2.8006   YY=   214.3231   ZY=    -3.9319
   XZ=     1.6766   YZ=    -7.8189   ZZ=   218.2324
   Eigenvalues:   209.7855   222.3808   226.3747
     17  C    Isotropic =   214.0620   Anisotropy =    23.0619
   XX=   209.1984   YX=     2.3400   ZX=     8.7455
   XY=     1.9223   YY=   206.8289   ZY=    -5.8803
   XZ=     5.3858   YZ=    -4.1301   ZZ=   226.1586
   Eigenvalues:   202.7164   210.0329   229.4366
     18  C    Isotropic =   209.1861   Anisotropy =    32.0536
   XX=   210.7523   YX=    19.1244   ZX=    -0.8433
   XY=    20.2277   YY=   205.3657   ZY=   -11.7508
   XZ=     6.6284   YZ=   -14.5313   ZZ=   211.4402
   Eigenvalues:   183.1136   213.8895   230.5551
     19  C    Isotropic =   200.3412   Anisotropy =    43.8388
   XX=   220.0816   YX=    15.9297   ZX=    12.5071
   XY=     7.0909   YY=   181.3397   ZY=    -1.6215
   XZ=    17.1328   YZ=    -3.7960   ZZ=   199.6023
   Eigenvalues:   176.0079   195.4486   229.5670
     20  C    Isotropic =   212.2464   Anisotropy =    20.3503
   XX=   206.5640   YX=    -6.0016   ZX=     6.1221
   XY=    -4.6625   YY=   212.5510   ZY=    10.0791
   XZ=     4.6233   YZ=    10.6554   ZZ=   217.6243
   Eigenvalues:   197.8878   213.0382   225.8133
     21  C    Isotropic =   208.2753   Anisotropy =    10.6943
   XX=   209.1190   YX=    -3.3951   ZX=     4.5701
   XY=     0.1036   YY=   213.6005   ZY=     8.9475
   XZ=     2.8190   YZ=     0.8055   ZZ=   202.1064
   Eigenvalues:   198.7458   210.6753   215.4048
     22  C    Isotropic =    96.8631   Anisotropy =    98.5777
   XX=   137.8376   YX=   -30.6450   ZX=   -44.4814
   XY=   -27.0034   YY=   122.6152   ZY=   -61.5006
   XZ=   -53.2264   YZ=   -82.6464   ZZ=    30.1364
   Eigenvalues:   -28.5716   156.5793   162.5816
     23  O    Isotropic =  -136.8512   Anisotropy =   890.6601
   XX=   346.8037   YX=  -259.8306   ZX=   -89.1314
   XY=  -269.0146   YY=  -379.7724   ZY=   183.8319
   XZ=   -90.4654   YZ=   168.7153   ZZ=  -377.5847
   Eigenvalues:  -575.4170  -292.0587   456.9222
     24  O    Isotropic =   284.0179   Anisotropy =   139.1317
   XX=   326.0220   YX=   -60.1201   ZX=   -29.7996
   XY=  -101.3177   YY=   151.7950   ZY=   -90.8365
   XZ=    15.8657   YZ=    43.9735   ZZ=   374.2369
   Eigenvalues:   117.8328   357.4486   376.7724
     25  C    Isotropic =   197.3873   Anisotropy =    56.7188
   XX=   187.8790   YX=    17.3850   ZX=     9.3074
   XY=    16.7836   YY=   214.1611   ZY=    21.7089
   XZ=     9.5743   YZ=    22.1629   ZZ=   190.1219
   Eigenvalues:   177.0238   179.9383   235.1999
     26  C    Isotropic =   209.7503   Anisotropy =    41.9844
   XX=   201.3947   YX=     4.9344   ZX=   -16.4747
   XY=     3.3807   YY=   199.5932   ZY=    -6.7101
   XZ=   -17.5550   YZ=    -4.4885   ZZ=   228.2631
   Eigenvalues:   192.8516   198.6594   237.7399
     27  C    Isotropic =   206.8761   Anisotropy =    21.9761
   XX=   218.0107   YX=    -7.0117   ZX=    -7.3287
   XY=    -3.0563   YY=   206.2383   ZY=     5.8104
   XZ=    -2.0502   YZ=     5.4751   ZZ=   196.3793
   Eigenvalues:   193.5947   205.5067   221.5268
     28  C    Isotropic =   119.9570   Anisotropy =   156.0922
   XX=    51.9978   YX=   -26.0400   ZX=    -2.1801
   XY=   -17.5701   YY=    84.1885   ZY=    -4.7397
   XZ=   -10.7055   YZ=    -4.0144   ZZ=   223.6847
   Eigenvalues:    40.6651    95.1874   224.0185
     29  C    Isotropic =   128.7032   Anisotropy =   148.4263
   XX=    78.4312   YX=    37.3412   ZX=    -0.3348
   XY=    43.6330   YY=    80.1900   ZY=    -3.3872
   XZ=    -8.6265   YZ=     1.6997   ZZ=   227.4885
   Eigenvalues:    38.7778   119.6778   227.6541
     30  C    Isotropic =   118.7692   Anisotropy =   152.3105
   XX=   105.5944   YX=   -14.2795   ZX=    -0.5444
   XY=   -18.4312   YY=    31.2793   ZY=    -9.8490
   XZ=    -9.5146   YZ=   -13.7057   ZZ=   219.4338
   Eigenvalues:    27.0189   108.9792   220.3095
     31  C    Isotropic =   133.8612   Anisotropy =   142.7935
   XX=    81.9872   YX=    38.1490   ZX=     1.2181
   XY=    29.5545   YY=    90.6802   ZY=    -6.7443
   XZ=    -1.6387   YZ=    -1.7237   ZZ=   228.9161
   Eigenvalues:    52.1646   120.3620   229.0568
     32  C    Isotropic =   108.6247   Anisotropy =   129.5908
   XX=    44.8906   YX=   -17.5250   ZX=    -7.8519
   XY=    -5.9399   YY=    86.2134   ZY=    -5.0774
   XZ=    -3.7698   YZ=     7.3534   ZZ=   194.7702
   Eigenvalues:    41.6064    89.2492   195.0186
     33  C    Isotropic =   117.9936   Anisotropy =   139.8862
   XX=    93.5286   YX=    -0.2667   ZX=     2.0512
   XY=    -8.8456   YY=    49.5900   ZY=    -4.7574
   XZ=     4.6544   YZ=    -8.7520   ZZ=   210.8621
   Eigenvalues:    48.8709    93.8587   211.2510
     34  N    Isotropic =   273.0062   Anisotropy =    84.8042
   XX=   283.4540   YX=    29.8965   ZX=    17.5681
   XY=    49.3965   YY=   277.3426   ZY=    24.6776
   XZ=    11.9513   YZ=    19.3549   ZZ=   258.2219
   Eigenvalues:   237.6371   251.8391   329.5423
     35  C    Isotropic =   201.1169   Anisotropy =    16.6996
   XX=   208.3226   YX=    -4.2467   ZX=    -8.5185
   XY=    -8.6238   YY=   197.2654   ZY=    -0.0018
   XZ=    -2.0426   YZ=    -5.8489   ZZ=   197.7626
   Eigenvalues:   190.6618   200.4390   212.2500
     36  C    Isotropic =   179.4013   Anisotropy =    40.2147
   XX=   187.8039   YX=   -14.2900   ZX=    -8.2038
   XY=   -10.3782   YY=   193.5097   ZY=     6.0757
   XZ=     3.7898   YZ=    20.4726   ZZ=   156.8904
   Eigenvalues:   152.4937   179.4992   206.2111
     37  C    Isotropic =   183.8645   Anisotropy =    41.7096
   XX=   164.2670   YX=   -12.5082   ZX=     1.1927
   XY=   -11.2199   YY=   190.6842   ZY=   -17.5571
   XZ=     7.3861   YZ=   -12.7786   ZZ=   196.6423
   Eigenvalues:   159.6538   180.2688   211.6709
     38  C    Isotropic =   211.1633   Anisotropy =    22.9775
   XX=   201.1440   YX=     4.3523   ZX=    -6.2076
   XY=    -2.7000   YY=   206.5142   ZY=     0.0657
   XZ=    -1.5975   YZ=    -1.7863   ZZ=   225.8317
   Eigenvalues:   200.4637   206.5445   226.4817
     39  C    Isotropic =   213.0303   Anisotropy =    19.4167
   XX=   207.7810   YX=    -6.2404   ZX=    -1.6571
   XY=    -1.2282   YY=   220.1777   ZY=    -9.5311
   XZ=    -0.8835   YZ=    -8.2206   ZZ=   211.1323
   Eigenvalues:   203.4289   209.6873   225.9748
     40  C    Isotropic =   211.7403   Anisotropy =    10.5646
   XX=   209.6535   YX=    -0.1069   ZX=    -2.5008
   XY=    -1.0738   YY=   214.7222   ZY=     5.2020
   XZ=    -2.2562   YZ=     5.3426   ZZ=   210.8451
   Eigenvalues:   206.3152   210.1222   218.7833
     41  N    Isotropic =   235.5646   Anisotropy =    26.1112
   XX=   245.8656   YX=    23.2730   ZX=     8.0286
   XY=    -1.3277   YY=   236.0044   ZY=    -9.9094
   XZ=     9.3583   YZ=   -15.5989   ZZ=   224.8238
   Eigenvalues:   211.2977   242.4240   252.9721
     42  C    Isotropic =   194.0004   Anisotropy =    49.1938
   XX=   201.3240   YX=   -19.0278   ZX=    -7.9108
   XY=   -24.3020   YY=   197.0360   ZY=    14.4845
   XZ=   -10.4008   YZ=    12.4525   ZZ=   183.6412
   Eigenvalues:   173.9968   181.2081   226.7963
     43  C    Isotropic =   219.4376   Anisotropy =    10.0341
   XX=   212.3717   YX=    -4.8761   ZX=     5.6392
   XY=    -3.0619   YY=   223.1662   ZY=     1.5286
   XZ=     7.1283   YZ=     3.8371   ZZ=   222.7749
   Eigenvalues:   207.8694   224.3164   226.1270
     44  C    Isotropic =   214.9912   Anisotropy =    21.8124
   XX=   210.6163   YX=    -8.6663   ZX=    -2.3391
   XY=   -11.6046   YY=   222.3597   ZY=     3.2409
   XZ=    -4.9814   YZ=     3.6666   ZZ=   211.9977
   Eigenvalues:   204.4558   210.9851   229.5328
     45  C    Isotropic =   207.3116   Anisotropy =    34.0052
   XX=   189.2237   YX=   -17.7506   ZX=     3.9581
   XY=   -12.1191   YY=   209.7030   ZY=    -6.7121
   XZ=     9.2106   YZ=    -7.1712   ZZ=   223.0082
   Eigenvalues:   181.1855   210.7676   229.9818
     46  C    Isotropic =   191.1201   Anisotropy =    50.5936
   XX=   171.7560   YX=    -7.5584   ZX=    16.6010
   XY=     4.0473   YY=   194.9967   ZY=    22.3171
   XZ=    14.4690   YZ=    19.1115   ZZ=   206.6075
   Eigenvalues:   162.6283   185.8828   224.8491
     47  C    Isotropic =   211.7997   Anisotropy =    26.0563
   XX=   222.6419   YX=     0.8542   ZX=   -12.5801
   XY=     0.3937   YY=   206.7414   ZY=     6.8756
   XZ=   -11.1604   YZ=     7.2557   ZZ=   206.0158
   Eigenvalues:   195.8203   210.4082   229.1705
     48  C    Isotropic =   207.3102   Anisotropy =    17.1054
   XX=   208.1239   YX=     4.2758   ZX=    -4.0378
   XY=     6.5819   YY=   208.5912   ZY=    -6.8507
   XZ=    -7.3763   YZ=    -4.7905   ZZ=   205.2155
   Eigenvalues:   200.2907   202.9261   218.7138
     49  C    Isotropic =    98.3450   Anisotropy =    96.8733
   XX=   113.9332   YX=   -65.0606   ZX=    45.3154
   XY=   -73.7550   YY=    60.8471   ZY=    74.1254
   XZ=    34.7308   YZ=    51.5113   ZZ=   120.2546
   Eigenvalues:   -25.0606   157.1683   162.9272
     50  O    Isotropic =  -132.5634   Anisotropy =   879.0690
   XX=   254.5698   YX=  -219.5694   ZX=   242.4682
   XY=  -220.5700   YY=  -297.6677   ZY=  -231.2803
   XZ=   243.8954   YZ=  -249.0655   ZZ=  -354.5922
   Eigenvalues:  -570.0781  -281.0947   453.4826
     51  O    Isotropic =   285.9231   Anisotropy =   142.4961
   XX=   329.9130   YX=   -16.9014   ZX=    70.4995
   XY=    33.9545   YY=   373.8662   ZY=   -58.8651
   XZ=    99.7209   YZ=    74.1366   ZZ=   153.9900
   Eigenvalues:   119.4954   357.3533   380.9204
     52  C    Isotropic =   197.5137   Anisotropy =    56.9456
   XX=   190.6984   YX=    10.9031   ZX=   -19.2036
   XY=    10.1607   YY=   186.6116   ZY=   -19.3043
   XZ=   -19.5034   YZ=   -18.5462   ZZ=   215.2311
   Eigenvalues:   177.0093   180.0544   235.4774
     53  C    Isotropic =   211.1039   Anisotropy =    42.2330
   XX=   226.0363   YX=   -17.5918   ZX=     8.3337
   XY=   -17.6849   YY=   205.8562   ZY=    -6.3399
   XZ=     8.0381   YZ=    -7.8004   ZZ=   201.4192
   Eigenvalues:   194.6346   199.4179   239.2593
     54  O    Isotropic =    74.7300   Anisotropy =   407.8404
   XX=   180.5128   YX=   185.9877   ZX=  -112.9844
   XY=   162.6298   YY=    52.1166   ZY=   -74.8756
   XZ=   -92.0239   YZ=   -70.9118   ZZ=    -8.4395
   Eigenvalues:   -69.5127   -52.9209   346.6236
     55  H    Isotropic =    26.1166   Anisotropy =    12.3091
   XX=    28.6478   YX=    -6.4301   ZX=     0.6642
   XY=    -6.1623   YY=    27.2733   ZY=     0.5976
   XZ=     1.3828   YZ=    -0.0554   ZZ=    22.4287
   Eigenvalues:    21.0486    22.9786    34.3227
     56  H    Isotropic =    26.0590   Anisotropy =     6.6675
   XX=    25.1507   YX=    -2.2743   ZX=    -2.6021
   XY=    -2.4592   YY=    24.6360   ZY=    -0.9115
   XZ=    -4.0675   YZ=    -1.2003   ZZ=    28.3902
   Eigenvalues:    21.1604    26.5125    30.5040
     57  H    Isotropic =    26.5512   Anisotropy =     7.4029
   XX=    26.8891   YX=    -4.9773   ZX=     0.4452
   XY=    -5.1266   YY=    25.1744   ZY=    -2.1522
   XZ=    -0.7075   YZ=    -1.5775   ZZ=    27.5900
   Eigenvalues:    20.5773    27.5898    31.4864
     58  H    Isotropic =    32.1277   Anisotropy =     7.5803
   XX=    30.5767   YX=    -3.8003   ZX=     0.7372
   XY=    -2.7058   YY=    33.7035   ZY=     4.1947
   XZ=     0.2419   YZ=     2.4378   ZZ=    32.1029
   Eigenvalues:    27.3403    31.8615    37.1813
     59  H    Isotropic =    32.9560   Anisotropy =     8.7452
   XX=    32.6589   YX=    -2.4200   ZX=     2.6371
   XY=     1.8603   YY=    38.1622   ZY=    -2.5704
   XZ=     2.5085   YZ=    -2.0539   ZZ=    28.0469
   Eigenvalues:    26.5485    33.5333    38.7861
     60  H    Isotropic =    32.0787   Anisotropy =    13.5562
   XX=    35.1640   YX=     3.1746   ZX=    -4.8359
   XY=     4.9777   YY=    25.9433   ZY=    -2.7091
   XZ=    -4.1333   YZ=    -2.5147   ZZ=    35.1287
   Eigenvalues:    24.3158    30.8041    41.1161
     61  H    Isotropic =    32.2499   Anisotropy =    15.8423
   XX=    42.0101   YX=     3.3159   ZX=    -0.2039
   XY=     3.8478   YY=    26.4108   ZY=    -1.3788
   XZ=    -0.2584   YZ=    -1.2950   ZZ=    28.3288
   Eigenvalues:    25.1315    28.8068    42.8114
     62  H    Isotropic =    32.6611   Anisotropy =    13.2474
   XX=    28.3172   YX=     2.0184   ZX=     2.2473
   XY=     3.7729   YY=    38.4985   ZY=     4.6376
   XZ=     1.9355   YZ=     4.1513   ZZ=    31.1677
   Eigenvalues:    27.1685    29.3221    41.4927
     63  H    Isotropic =    32.5104   Anisotropy =    11.5323
   XX=    30.5202   YX=    -2.8975   ZX=    -2.0460
   XY=    -3.0410   YY=    30.0683   ZY=     4.3849
   XZ=    -1.8625   YZ=     4.6880   ZZ=    36.9428
   Eigenvalues:    26.7508    30.5819    40.1986
     64  H    Isotropic =    31.7429   Anisotropy =    14.1991
   XX=    30.5578   YX=     3.5907   ZX=    -1.9042
   XY=     3.9660   YY=    30.5353   ZY=    -6.9338
   XZ=    -1.4540   YZ=    -7.8183   ZZ=    34.1356
   Eigenvalues:    24.0789    29.9408    41.2090
     65  H    Isotropic =    32.4156   Anisotropy =    17.6782
   XX=    30.0570   YX=     0.0596   ZX=     5.5697
   XY=     0.3699   YY=    25.4519   ZY=    -1.3780
   XZ=     5.8962   YZ=    -2.0287   ZZ=    41.7380
   Eigenvalues:    25.0657    27.9801    44.2011
     66  H    Isotropic =    31.8560   Anisotropy =    12.5667
   XX=    29.1270   YX=    -4.8798   ZX=     0.7517
   XY=    -4.6316   YY=    37.6213   ZY=    -2.0112
   XZ=     1.0676   YZ=    -2.3224   ZZ=    28.8197
   Eigenvalues:    26.9959    28.3383    40.2338
     67  H    Isotropic =    32.5807   Anisotropy =    12.8685
   XX=    28.1856   YX=     3.1483   ZX=     3.1077
   XY=     3.8390   YY=    35.1301   ZY=     4.7299
   XZ=     3.2436   YZ=     4.5707   ZZ=    34.4263
   Eigenvalues:    26.4671    30.1152    41.1597
     68  H    Isotropic =    32.2546   Anisotropy =    15.3022
   XX=    41.3879   YX=    -1.6469   ZX=     3.2160
   XY=    -1.5488   YY=    25.3574   ZY=    -1.4569
   XZ=     3.2362   YZ=    -1.4783   ZZ=    30.0184
   Eigenvalues:    24.9049    29.4028    42.4560
     69  H    Isotropic =    33.2510   Anisotropy =    15.4158
   XX=    41.8783   YX=     4.2129   ZX=     3.7248
   XY=     1.3585   YY=    29.4968   ZY=    -2.3159
   XZ=     4.9524   YZ=    -0.5200   ZZ=    28.3779
   Eigenvalues:    25.7641    30.4607    43.5282
     70  H    Isotropic =    32.3746   Anisotropy =    10.4320
   XX=    31.2852   YX=     0.2679   ZX=    -4.0118
   XY=    -0.2826   YY=    36.1099   ZY=     4.8852
   XZ=    -2.4333   YZ=     5.4533   ZZ=    29.7288
   Eigenvalues:    25.4476    32.3470    39.3293
     71  H    Isotropic =    32.3557   Anisotropy =    12.5252
   XX=    38.5671   YX=    -3.5564   ZX=    -4.2090
   XY=    -4.1137   YY=    28.4164   ZY=     0.1216
   XZ=    -2.0198   YZ=     0.1889   ZZ=    30.0837
   Eigenvalues:    26.8506    29.5107    40.7058
     72  H    Isotropic =    31.9865   Anisotropy =    14.3827
   XX=    33.6221   YX=     7.7140   ZX=    -1.2888
   XY=     5.8252   YY=    34.0246   ZY=    -4.4758
   XZ=    -0.2662   YZ=    -3.9115   ZZ=    28.3127
   Eigenvalues:    24.9058    29.4787    41.5750
     73  H    Isotropic =    30.3545   Anisotropy =     9.6727
   XX=    25.2775   YX=    -0.6462   ZX=    -0.4918
   XY=    -0.8311   YY=    35.9540   ZY=    -2.8719
   XZ=    -0.5757   YZ=    -1.9162   ZZ=    29.8321
   Eigenvalues:    25.1114    29.1492    36.8030
     74  H    Isotropic =    32.0025   Anisotropy =    15.5310
   XX=    40.2277   YX=    -5.6316   ZX=     0.6685
   XY=    -5.8167   YY=    26.9627   ZY=     0.8674
   XZ=    -0.0029   YZ=     1.2538   ZZ=    28.8172
   Eigenvalues:    24.5456    29.1054    42.3565
     75  H    Isotropic =    31.1489   Anisotropy =    12.6556
   XX=    34.2252   YX=    -0.4375   ZX=    -5.9510
   XY=    -1.7122   YY=    25.9609   ZY=     1.2923
   XZ=    -5.2481   YZ=     1.5169   ZZ=    33.2605
   Eigenvalues:    25.6997    28.1610    39.5859
     76  H    Isotropic =    30.6104   Anisotropy =     8.3957
   XX=    34.5187   YX=     3.5434   ZX=    -1.0066
   XY=     3.0827   YY=    29.5822   ZY=     2.1651
   XZ=    -2.1876   YZ=     2.2258   ZZ=    27.7304
   Eigenvalues:    25.1353    30.4885    36.2076
     77  H    Isotropic =    30.4909   Anisotropy =    11.9778
   XX=    28.1904   YX=    -4.1163   ZX=    -0.6812
   XY=    -4.4129   YY=    35.7659   ZY=     3.2867
   XZ=    -0.2483   YZ=     2.7481   ZZ=    27.5162
   Eigenvalues:    25.6812    27.3153    38.4761
     78  H    Isotropic =    30.5108   Anisotropy =    11.3088
   XX=    26.2425   YX=     0.2790   ZX=     2.1355
   XY=     0.1429   YY=    28.0846   ZY=     2.6313
   XZ=     1.5462   YZ=     2.0173   ZZ=    37.2052
   Eigenvalues:    25.9252    27.5571    38.0500
     79  H    Isotropic =    31.8550   Anisotropy =    12.0794
   XX=    29.7109   YX=     3.1904   ZX=    -3.2233
   XY=     4.7422   YY=    33.6983   ZY=    -5.1684
   XZ=    -2.3788   YZ=    -4.0698   ZZ=    32.1557
   Eigenvalues:    27.2645    28.3926    39.9080
     80  H    Isotropic =    30.6921   Anisotropy =    13.7407
   XX=    27.8956   YX=    -1.5929   ZX=     3.2567
   XY=    -1.0854   YY=    25.2475   ZY=    -0.4682
   XZ=     3.3086   YZ=     0.1799   ZZ=    38.9333
   Eigenvalues:    24.5807    27.6431    39.8526
     81  H    Isotropic =    30.8038   Anisotropy =    10.8893
   XX=    30.5467   YX=    -4.8877   ZX=    -4.8551
   XY=    -4.0987   YY=    28.7589   ZY=     0.0408
   XZ=    -4.8696   YZ=     1.0728   ZZ=    33.1057
   Eigenvalues:    24.1100    30.2381    38.0633
     82  H    Isotropic =    30.3178   Anisotropy =     9.2112
   XX=    29.2681   YX=    -1.2598   ZX=     2.3056
   XY=    -2.1477   YY=    28.4480   ZY=     3.8751
   XZ=     4.8607   YZ=     4.4327   ZZ=    33.2372
   Eigenvalues:    23.8896    30.6052    36.4586
     83  H    Isotropic =    29.8698   Anisotropy =    12.3385
   XX=    27.9608   YX=    -0.5849   ZX=    -0.9422
   XY=    -2.6233   YY=    37.2958   ZY=    -2.5308
   XZ=    -2.6867   YZ=    -3.4556   ZZ=    24.3528
   Eigenvalues:    22.8087    28.7052    38.0955
     84  H    Isotropic =    27.6221   Anisotropy =    17.7577
   XX=    36.0751   YX=     4.7933   ZX=    -1.5259
   XY=     7.2167   YY=    28.6341   ZY=    -1.9266
   XZ=     0.3688   YZ=     0.1231   ZZ=    18.1573
   Eigenvalues:    18.0799    25.3259    39.4606
     85  H    Isotropic =    25.7060   Anisotropy =     6.9682
   XX=    29.6449   YX=    -1.7516   ZX=    -0.1327
   XY=    -1.2223   YY=    27.1829   ZY=     0.5140
   XZ=    -0.0551   YZ=     0.3532   ZZ=    20.2903
   Eigenvalues:    20.2631    26.5035    30.3515
     86  H    Isotropic =    26.4835   Anisotropy =     7.4725
   XX=    28.2758   YX=     0.9073   ZX=     0.4191
   XY=     0.7571   YY=    31.0107   ZY=     1.5629
   XZ=    -0.2131   YZ=     1.6580   ZZ=    20.1641
   Eigenvalues:    19.9300    28.0554    31.4652
     87  H    Isotropic =    32.3742   Anisotropy =    11.0342
   XX=    38.7838   YX=     2.1337   ZX=    -0.9978
   XY=     3.1161   YY=    31.6326   ZY=    -0.6396
   XZ=    -1.4957   YZ=     1.4497   ZZ=    26.7062
   Eigenvalues:    26.4818    30.9105    39.7304
     88  H    Isotropic =    33.3342   Anisotropy =     8.2741
   XX=    28.9640   YX=     2.9991   ZX=    -1.9571
   XY=     2.6720   YY=    37.3900   ZY=    -3.0844
   XZ=     0.9897   YZ=    -0.2988   ZZ=    33.6487
   Eigenvalues:    28.0984    33.0540    38.8503
     89  H    Isotropic =    32.2231   Anisotropy =    13.5803
   XX=    33.9095   YX=    -4.6376   ZX=     5.2855
   XY=    -3.9553   YY=    28.5960   ZY=    -1.6422
   XZ=     6.9052   YZ=    -0.4263   ZZ=    34.1640
   Eigenvalues:    25.4400    29.9527    41.2767
     90  H    Isotropic =    32.3649   Anisotropy =    15.2900
   XX=    28.0228   YX=    -0.6234   ZX=     4.0524
   XY=    -0.6798   YY=    28.0745   ZY=     2.0565
   XZ=     4.3790   YZ=     2.7439   ZZ=    40.9972
   Eigenvalues:    25.8830    28.6534    42.5582
     91  H    Isotropic =    33.2406   Anisotropy =    12.1616
   XX=    36.5920   YX=     2.9751   ZX=    -5.1704
   XY=     3.4994   YY=    30.4343   ZY=    -2.9877
   XZ=    -4.9354   YZ=    -0.8323   ZZ=    32.6954
   Eigenvalues:    28.9405    29.4329    41.3483
     92  H    Isotropic =    31.0458   Anisotropy =    12.7027
   XX=    29.0597   YX=    -4.6765   ZX=     3.4189
   XY=    -3.6546   YY=    34.0566   ZY=    -4.7429
   XZ=     3.2319   YZ=    -3.9274   ZZ=    30.0211
   Eigenvalues:    26.1428    27.4803    39.5143
     93  H    Isotropic =    32.4264   Anisotropy =    15.2846
   XX=    42.3500   YX=     2.4712   ZX=    -0.1355
   XY=     1.2609   YY=    29.5288   ZY=     1.6546
   XZ=    -0.2943   YZ=     1.5039   ZZ=    25.4004
   Eigenvalues:    24.8277    29.8354    42.6161
     94  H    Isotropic =    31.1734   Anisotropy =    13.6862
   XX=    30.3579   YX=     5.1022   ZX=    -0.8361
   XY=     5.4275   YY=    37.3688   ZY=    -1.1866
   XZ=    -0.4962   YZ=    -0.9543   ZZ=    25.7937
   Eigenvalues:    25.6809    27.5418    40.2976
     95  H    Isotropic =    32.4408   Anisotropy =    16.3416
   XX=    32.6641   YX=    -7.1039   ZX=    -2.7008
   XY=    -6.6378   YY=    35.4357   ZY=     5.0859
   XZ=    -2.3601   YZ=     5.3616   ZZ=    29.2226
   Eigenvalues:    25.7403    28.2469    43.3352
     96  H    Isotropic =    32.8929   Anisotropy =    11.9279
   XX=    35.1150   YX=    -0.4563   ZX=    -6.4677
   XY=    -0.4104   YY=    29.8879   ZY=    -1.0304
   XZ=    -6.3482   YZ=    -0.2788   ZZ=    33.6759
   Eigenvalues:    27.6744    30.1595    40.8448
     97  H    Isotropic =    32.2228   Anisotropy =    15.1479
   XX=    29.4175   YX=     0.9202   ZX=     4.4050
   XY=     1.0768   YY=    32.5783   ZY=     7.2126
   XZ=     4.5480   YZ=     7.4468   ZZ=    34.6725
   Eigenvalues:    24.8773    29.4697    42.3214
     98  H    Isotropic =    32.8444   Anisotropy =     9.9595
   XX=    27.8460   YX=     0.5805   ZX=     1.1269
   XY=     0.0811   YY=    33.4033   ZY=     5.0365
   XZ=     0.8531   YZ=     2.0755   ZZ=    37.2840
   Eigenvalues:    27.7429    31.3063    39.4841
     99  H    Isotropic =    31.4097   Anisotropy =    12.5474
   XX=    36.4650   YX=     2.5061   ZX=    -4.6224
   XY=     1.6441   YY=    26.0726   ZY=    -2.4117
   XZ=    -4.0414   YZ=    -3.0970   ZZ=    31.6916
   Eigenvalues:    24.9383    29.5162    39.7746
    100  H    Isotropic =    32.0864   Anisotropy =    15.3961
   XX=    40.6508   YX=     2.9604   ZX=     2.7302
   XY=     3.9091   YY=    28.7927   ZY=     0.5968
   XZ=     4.2782   YZ=     0.0723   ZZ=    26.8158
   Eigenvalues:    25.8759    28.0329    42.3505
    101  H    Isotropic =    31.1458   Anisotropy =    13.4649
   XX=    28.0624   YX=    -1.3221   ZX=     3.0894
   XY=    -1.3034   YY=    28.5255   ZY=    -4.2431
   XZ=     2.1347   YZ=    -6.3251   ZZ=    36.8496
   Eigenvalues:    25.9600    27.3550    40.1225
    102  H    Isotropic =    29.9446   Anisotropy =    11.1080
   XX=    30.7462   YX=     2.7045   ZX=    -3.0963
   XY=     3.5607   YY=    34.6408   ZY=    -2.3257
   XZ=    -1.9624   YZ=    -2.9159   ZZ=    24.4467
   Eigenvalues:    23.3416    29.1422    37.3499
    103  H    Isotropic =    31.8601   Anisotropy =    14.6951
   XX=    33.8982   YX=     3.1566   ZX=     5.1584
   XY=     3.3701   YY=    28.4237   ZY=     4.6348
   XZ=     5.7802   YZ=     5.4453   ZZ=    33.2585
   Eigenvalues:    25.2468    28.6768    41.6569
    104  H    Isotropic =    31.4625   Anisotropy =    13.1432
   XX=    38.1878   YX=    -1.6435   ZX=     5.3674
   XY=    -0.7707   YY=    28.6544   ZY=    -1.6600
   XZ=     4.2415   YZ=    -0.2921   ZZ=    27.5452
   Eigenvalues:    25.6181    28.5447    40.2246
    105  H    Isotropic =    30.6241   Anisotropy =    11.7265
   XX=    35.8033   YX=    -0.8303   ZX=    -4.8600
   XY=    -1.3717   YY=    27.9259   ZY=     0.1193
   XZ=    -5.3271   YZ=    -0.0433   ZZ=    28.1430
   Eigenvalues:    25.5105    27.9199    38.4417
    106  H    Isotropic =    30.6657   Anisotropy =    12.5256
   XX=    29.3734   YX=     5.0978   ZX=    -1.4780
   XY=     5.0391   YY=    35.9443   ZY=    -0.9072
   XZ=    -1.8555   YZ=    -1.7729   ZZ=    26.6794
   Eigenvalues:    25.6666    27.3145    39.0161
    107  H    Isotropic =    30.6065   Anisotropy =     7.1780
   XX=    30.8922   YX=     0.8108   ZX=     1.7728
   XY=     1.8155   YY=    27.0515   ZY=    -2.8222
   XZ=     1.3784   YZ=    -3.6377   ZZ=    33.8757
   Eigenvalues:    25.1858    31.2418    35.3918
    108  H    Isotropic =    31.5325   Anisotropy =    12.0745
   XX=    39.4272   YX=     0.1271   ZX=     1.2485
   XY=     0.7096   YY=    31.3530   ZY=     0.0435
   XZ=     1.6334   YZ=     0.3790   ZZ=    23.8172
   Eigenvalues:    23.6814    31.3338    39.5822
    109  H    Isotropic =    30.8107   Anisotropy =    15.0661
   XX=    31.8556   YX=    -6.0621   ZX=    -2.6274
   XY=    -5.3679   YY=    34.2002   ZY=     4.9697
   XZ=    -2.2599   YZ=     4.8561   ZZ=    26.3762
   Eigenvalues:    23.9917    27.5856    40.8548
    110  H    Isotropic =    31.9932   Anisotropy =    11.7802
   XX=    30.0965   YX=    -4.0424   ZX=     1.6781
   XY=    -3.5941   YY=    32.2376   ZY=    -4.9770
   XZ=     3.2479   YZ=    -4.7744   ZZ=    33.6456
   Eigenvalues:    26.9028    29.2302    39.8466
 End of Minotr F.D. properties file   721 does not exist.
 End of Minotr F.D. properties file   722 does not exist.
 End of Minotr F.D. properties file   788 does not exist.
 Hyperfine terms turned off by default for NAtoms > 100.

 **********************************************************************

            Population analysis using the SCF Density.

 **********************************************************************

 Orbital symmetries:
       Occupied  (A) (A) (A) (A) (A) (A) (A) (A) (A) (A) (A) (A)
                 (A) (A) (A) (A) (A) (A) (A) (A) (A) (A) (A) (A)
                 (A) (A) (A) (A) (A) (A) (A) (A) (A) (A) (A) (A)
                 (A) (A) (A) (A) (A) (A) (A) (A) (A) (A) (A) (A)
                 (A) (A) (A) (A) (A) (A) (A) (A) (A) (A) (A) (A)
                 (A) (A) (A) (A) (A) (A) (A) (A) (A) (A) (A) (A)
                 (A) (A) (A) (A) (A) (A) (A) (A) (A) (A) (A) (A)
                 (A) (A) (A) (A) (A) (A) (A) (A) (A) (A) (A) (A)
                 (A) (A) (A) (A) (A) (A) (A) (A) (A) (A) (A) (A)
                 (A) (A) (A) (A) (A) (A) (A) (A) (A) (A) (A) (A)
                 (A) (A) (A) (A) (A) (A) (A) (A) (A) (A) (A) (A)
                 (A) (A) (A) (A) (A) (A) (A) (A) (A) (A) (A) (A)
                 (A) (A) (A) (A) (A) (A) (A) (A) (A) (A) (A) (A)
                 (A) (A) (A) (A) (A) (A) (A) (A) (A) (A) (A) (A)
                 (A) (A) (A) (A) (A) (A) (A) (A) (A) (A) (A) (A)
                 (A) (A) (A) (A) (A) (A) (A) (A) (A) (A) (A) (A)
                 (A) (A) (A) (A) (A)
       Virtual   (A) (A) (A) (A) (A) (A) (A) (A) (A) (A) (A) (A)
                 (A) (A) (A) (A) (A) (A) (A) (A) (A) (A) (A) (A)
                 (A) (A) (A) (A) (A) (A) (A) (A) (A) (A) (A) (A)
                 (A) (A) (A) (A) (A) (A) (A) (A) (A) (A) (A) (A)
                 (A) (A) (A) (A) (A) (A) (A) (A) (A) (A) (A) (A)
                 (A) (A) (A) (A) (A) (A) (A) (A) (A) (A) (A) (A)
                 (A) (A) (A) (A) (A) (A) (A) (A) (A) (A) (A) (A)
                 (A) (A) (A) (A) (A) (A) (A) (A) (A) (A) (A) (A)
                 (A) (A) (A) (A) (A) (A) (A) (A) (A) (A) (A) (A)
                 (A) (A) (A) (A) (A) (A) (A) (A) (A) (A) (A) (A)
                 (A) (A) (A) (A) (A) (A) (A) (A) (A)
 The electronic state is 1-A.
 Alpha  occ. eigenvalues --  -20.30430 -20.28507 -20.24538 -20.22529 -19.92099
 Alpha  occ. eigenvalues --  -15.48149 -15.33821 -15.33401 -15.30511 -11.16340
 Alpha  occ. eigenvalues --  -11.14746 -11.10556 -11.09618 -11.09591 -11.09297
 Alpha  occ. eigenvalues --  -11.09186 -11.08727 -11.08661 -11.08067 -11.07980
 Alpha  occ. eigenvalues --  -11.07248 -11.07204 -11.07178 -11.06374 -11.06360
 Alpha  occ. eigenvalues --  -11.06194 -11.06038 -11.05987 -11.05822 -11.05637
 Alpha  occ. eigenvalues --  -11.05437 -11.05132 -11.04786 -11.04704 -11.04635
 Alpha  occ. eigenvalues --  -11.04355 -11.04087 -11.04082 -11.03987 -11.03966
 Alpha  occ. eigenvalues --  -11.03935 -11.03892 -11.03613 -11.03129 -11.02504
 Alpha  occ. eigenvalues --  -11.02381 -11.02366 -11.02182 -11.02099 -11.02099
 Alpha  occ. eigenvalues --  -11.01892 -11.01866 -11.01855 -11.01469  -1.37724
 Alpha  occ. eigenvalues --   -1.35756  -1.29535  -1.27443  -1.25505  -1.21903
 Alpha  occ. eigenvalues --   -1.20817  -1.19633  -1.10476  -1.09666  -1.08980
 Alpha  occ. eigenvalues --   -1.07772  -1.05810  -1.05093  -1.02759  -1.00826
 Alpha  occ. eigenvalues --   -0.99104  -0.98721  -0.98423  -0.97537  -0.96718
 Alpha  occ. eigenvalues --   -0.96497  -0.95169  -0.94705  -0.94347  -0.92588
 Alpha  occ. eigenvalues --   -0.91744  -0.91470  -0.89623  -0.89325  -0.87975
 Alpha  occ. eigenvalues --   -0.86599  -0.84875  -0.82896  -0.81599  -0.81153
 Alpha  occ. eigenvalues --   -0.80391  -0.79780  -0.78261  -0.77531  -0.77402
 Alpha  occ. eigenvalues --   -0.77237  -0.74447  -0.74438  -0.73249  -0.72757
 Alpha  occ. eigenvalues --   -0.71836  -0.70300  -0.69604  -0.68301  -0.65542
 Alpha  occ. eigenvalues --   -0.65058  -0.64845  -0.64658  -0.63608  -0.62882
 Alpha  occ. eigenvalues --   -0.62504  -0.62367  -0.61547  -0.61461  -0.61311
 Alpha  occ. eigenvalues --   -0.60396  -0.60108  -0.59090  -0.58660  -0.58447
 Alpha  occ. eigenvalues --   -0.58180  -0.58026  -0.57919  -0.57770  -0.57371
 Alpha  occ. eigenvalues --   -0.57070  -0.56963  -0.56443  -0.55952  -0.55606
 Alpha  occ. eigenvalues --   -0.55331  -0.54833  -0.54564  -0.54475  -0.54308
 Alpha  occ. eigenvalues --   -0.54261  -0.53924  -0.53554  -0.52922  -0.51781
 Alpha  occ. eigenvalues --   -0.51756  -0.51375  -0.50922  -0.50739  -0.50520
 Alpha  occ. eigenvalues --   -0.50191  -0.49917  -0.49544  -0.49112  -0.48659
 Alpha  occ. eigenvalues --   -0.48419  -0.48279  -0.47627  -0.47354  -0.47129
 Alpha  occ. eigenvalues --   -0.46972  -0.46518  -0.45936  -0.45606  -0.45236
 Alpha  occ. eigenvalues --   -0.44902  -0.44764  -0.44527  -0.44009  -0.43934
 Alpha  occ. eigenvalues --   -0.43703  -0.43306  -0.42920  -0.42678  -0.42530
 Alpha  occ. eigenvalues --   -0.42160  -0.41846  -0.41364  -0.41161  -0.40550
 Alpha  occ. eigenvalues --   -0.40138  -0.39880  -0.38715  -0.38215  -0.38113
 Alpha  occ. eigenvalues --   -0.37562  -0.37313  -0.36109  -0.35541  -0.34217
 Alpha  occ. eigenvalues --   -0.33166  -0.33137  -0.32073  -0.31209  -0.30540
 Alpha  occ. eigenvalues --   -0.27666  -0.27515  -0.27103  -0.21333  -0.20515
 Alpha  occ. eigenvalues --   -0.16042  -0.15520
 Alpha virt. eigenvalues --    0.26601   0.26844   0.27565   0.28199   0.30688
 Alpha virt. eigenvalues --    0.32842   0.45693   0.47975   0.48375   0.48712
 Alpha virt. eigenvalues --    0.49292   0.49940   0.50394   0.51447   0.51997
 Alpha virt. eigenvalues --    0.53735   0.55218   0.55417   0.55662   0.55785
 Alpha virt. eigenvalues --    0.56797   0.57392   0.57823   0.57900   0.58672
 Alpha virt. eigenvalues --    0.59256   0.59445   0.60200   0.60430   0.60986
 Alpha virt. eigenvalues --    0.61485   0.61672   0.62028   0.62500   0.63001
 Alpha virt. eigenvalues --    0.63265   0.63712   0.64127   0.64543   0.64796
 Alpha virt. eigenvalues --    0.65089   0.65154   0.65457   0.65564   0.66137
 Alpha virt. eigenvalues --    0.66337   0.66568   0.66694   0.66982   0.67123
 Alpha virt. eigenvalues --    0.67532   0.67920   0.68102   0.68307   0.68664
 Alpha virt. eigenvalues --    0.68914   0.69289   0.69527   0.69758   0.69826
 Alpha virt. eigenvalues --    0.70127   0.70387   0.70722   0.71032   0.71117
 Alpha virt. eigenvalues --    0.71340   0.71433   0.71711   0.72157   0.72301
 Alpha virt. eigenvalues --    0.72517   0.72996   0.73125   0.73254   0.73503
 Alpha virt. eigenvalues --    0.73643   0.74270   0.74384   0.74475   0.74699
 Alpha virt. eigenvalues --    0.75009   0.75419   0.75590   0.75909   0.76045
 Alpha virt. eigenvalues --    0.76237   0.76332   0.76569   0.76739   0.77476
 Alpha virt. eigenvalues --    0.77850   0.78048   0.78177   0.78702   0.79037
 Alpha virt. eigenvalues --    0.79247   0.79380   0.79870   0.80309   0.80735
 Alpha virt. eigenvalues --    0.80812   0.80957   0.81232   0.81573   0.81787
 Alpha virt. eigenvalues --    0.81952   0.82783   0.84216   0.84275   0.84855
 Alpha virt. eigenvalues --    0.85401   0.85750   0.85838   0.87226   0.87236
 Alpha virt. eigenvalues --    0.88192   0.88690   0.90596   0.91598   0.93639
 Alpha virt. eigenvalues --    0.94720   0.95871   0.97170   1.01505   1.03354
 Alpha virt. eigenvalues --    1.10405   1.10736   1.15505   1.15907
          Condensed to atoms (all electrons):
 Mulliken charges:
               1
     1  C   -0.079400
     2  C    0.000517
     3  C   -0.063011
     4  C   -0.089731
     5  C    0.089064
     6  C   -0.015345
     7  N   -0.283788
     8  C    0.015500
     9  C    0.129429
    10  C    0.040853
    11  C   -0.114762
    12  C   -0.107994
    13  C    0.041782
    14  N   -0.293802
    15  C   -0.011873
    16  C   -0.095690
    17  C   -0.100475
    18  C   -0.099520
    19  C   -0.013839
    20  C   -0.104468
    21  C   -0.064422
    22  C    0.318339
    23  O   -0.273853
    24  O   -0.256400
    25  C   -0.055476
    26  C   -0.079336
    27  C   -0.110125
    28  C   -0.000140
    29  C   -0.080110
    30  C   -0.061976
    31  C   -0.090236
    32  C    0.095236
    33  C   -0.013777
    34  N   -0.280972
    35  C    0.015149
    36  C    0.134806
    37  C    0.039581
    38  C   -0.116005
    39  C   -0.105484
    40  C    0.040185
    41  N   -0.081516
    42  C   -0.003363
    43  C   -0.097088
    44  C   -0.099209
    45  C   -0.097864
    46  C   -0.004885
    47  C   -0.098666
    48  C   -0.058619
    49  C    0.327093
    50  O   -0.275465
    51  O   -0.255858
    52  C   -0.054038
    53  C   -0.077323
    54  O   -0.461369
    55  H    0.057168
    56  H    0.057761
    57  H    0.059972
    58  H    0.042872
    59  H    0.053873
    60  H    0.050164
    61  H    0.049131
    62  H    0.049590
    63  H    0.039169
    64  H    0.061779
    65  H    0.050721
    66  H    0.056388
    67  H    0.047148
    68  H    0.052019
    69  H    0.050110
    70  H    0.067771
    71  H    0.038143
    72  H    0.061658
    73  H    0.079622
    74  H    0.048894
    75  H    0.063824
    76  H    0.072737
    77  H    0.072539
    78  H    0.076552
    79  H    0.055276
    80  H    0.071169
    81  H    0.077208
    82  H    0.059763
    83  H    0.059753
    84  H    0.056807
    85  H    0.055600
    86  H    0.060203
    87  H    0.055034
    88  H    0.054701
    89  H    0.049161
    90  H    0.052863
    91  H    0.047853
    92  H    0.084857
    93  H    0.056551
    94  H    0.080779
    95  H    0.058059
    96  H    0.047317
    97  H    0.058227
    98  H    0.067221
    99  H    0.095568
   100  H    0.056097
   101  H    0.089488
   102  H    0.102147
   103  H    0.044739
   104  H    0.061885
   105  H    0.067333
   106  H    0.074268
   107  H    0.078157
   108  H    0.072298
   109  H    0.075227
   110  H    0.054526
 Sum of Mulliken charges =  -0.00000
 Mulliken charges with hydrogens summed into heavy atoms:
               1
     1  C   -0.022232
     2  C    0.000517
     3  C   -0.005251
     4  C   -0.029759
     5  C    0.089064
     6  C   -0.015345
     7  N   -0.283788
     8  C    0.015500
     9  C    0.129429
    10  C    0.083725
    11  C   -0.010725
    12  C   -0.009273
    13  C    0.041782
    14  N   -0.293802
    15  C    0.089076
    16  C    0.011420
    17  C   -0.001308
    18  C    0.018361
    19  C    0.085962
    20  C    0.024048
    21  C   -0.000599
    22  C    0.318339
    23  O   -0.273853
    24  O   -0.256400
    25  C    0.166352
    26  C    0.124317
    27  C    0.009392
    28  C   -0.000140
    29  C   -0.023303
    30  C   -0.006376
    31  C   -0.030033
    32  C    0.095236
    33  C   -0.013777
    34  N   -0.280972
    35  C    0.015149
    36  C    0.134806
    37  C    0.094616
    38  C   -0.012143
    39  C   -0.004768
    40  C    0.040185
    41  N   -0.081516
    42  C    0.138045
    43  C    0.041749
    44  C    0.006334
    45  C    0.064926
    46  C    0.140700
    47  C    0.048221
    48  C    0.003265
    49  C    0.327093
    50  O   -0.275465
    51  O   -0.255858
    52  C    0.165720
    53  C    0.124728
    54  O   -0.461369
 Electronic spatial extent (au):  <R**2>=          38343.2533
 Charge=             -0.0000 electrons
 Dipole moment (field-independent basis, Debye):
    X=              3.4652    Y=              1.9274    Z=             -2.8229  Tot=              4.8673
 Quadrupole moment (field-independent basis, Debye-Ang):
   XX=           -299.6239   YY=           -305.9583   ZZ=           -292.8988
   XY=             -1.7904   XZ=             10.6402   YZ=              3.9858
 Traceless Quadrupole moment (field-independent basis, Debye-Ang):
   XX=             -0.1303   YY=             -6.4646   ZZ=              6.5948
   XY=             -1.7904   XZ=             10.6402   YZ=              3.9858
 Octapole moment (field-independent basis, Debye-Ang**2):
  XXX=             34.0435  YYY=            -26.4402  ZZZ=             -8.1338  XYY=            -24.9980
  XXY=             32.6555  XXZ=            -89.1904  XZZ=             20.5600  YZZ=            -42.2043
  YYZ=            -25.1073  XYZ=             28.8748
 Hexadecapole moment (field-independent basis, Debye-Ang**3):
 XXXX=         -33079.1430 YYYY=          -8321.6399 ZZZZ=          -5527.7628 XXXY=             34.2207
 XXXZ=            -68.3820 YYYX=            -82.6917 YYYZ=             94.5610 ZZZX=           -207.5947
 ZZZY=             11.9603 XXYY=          -7149.8147 XXZZ=          -6561.4287 YYZZ=          -2249.3915
 XXYZ=            -76.7835 YYXZ=           -148.9042 ZZXY=             35.7031
 N-N= 8.102053393963D+03 E-N=-2.158037886590D+04  KE= 2.279059764507D+03
 ******************************Gaussian NBO Version 3.1******************************
             N A T U R A L   A T O M I C   O R B I T A L   A N D
          N A T U R A L   B O N D   O R B I T A L   A N A L Y S I S
 ******************************Gaussian NBO Version 3.1******************************
       /RESON  / : Allow strongly delocalized NBO set
       /NLMO   / : Form Natural Localized Molecular Orbitals
       /NMR /    : Analyze NMR Sheilding Tensor 

 Analyzing the SCF density

 Job title: Pleiokomenine_C_2                                               

 Storage needed:    355564 in NPA,    438187 in NBO,   2133784 in NLMO ( 104796000 available)
 GSVD:  LWork=     -108884 too small for GESVD, short by      536270 words or      536270 for optimal perf.


 NATURAL POPULATIONS:  Natural atomic orbital occupancies 
                                                          
   NAO  Atom  No  lang   Type(AO)    Occupancy      Energy
 ----------------------------------------------------------
     1    C    1  S      Cor( 1S)     1.99992     -10.94891
     2    C    1  S      Val( 2S)     1.07894      -0.18152
     3    C    1  px     Val( 2p)     1.00031       0.07241
     4    C    1  py     Val( 2p)     1.00166       0.08017
     5    C    1  pz     Val( 2p)     0.98167       0.15221
 
     6    C    2  S      Cor( 1S)     1.99991     -10.95806
     7    C    2  S      Val( 2S)     1.07906      -0.18638
     8    C    2  px     Val( 2p)     0.96795       0.09831
     9    C    2  py     Val( 2p)     0.98131       0.09091
    10    C    2  pz     Val( 2p)     0.95685       0.17163
 
    11    C    3  S      Cor( 1S)     1.99994     -10.94987
    12    C    3  S      Val( 2S)     1.08362      -0.18462
    13    C    3  px     Val( 2p)     0.98843       0.08236
    14    C    3  py     Val( 2p)     0.99286       0.08265
    15    C    3  pz     Val( 2p)     0.97007       0.16028
 
    16    C    4  S      Cor( 1S)     1.99993     -10.94409
    17    C    4  S      Val( 2S)     1.07207      -0.17613
    18    C    4  px     Val( 2p)     1.01879       0.07035
    19    C    4  py     Val( 2p)     1.01214       0.07935
    20    C    4  pz     Val( 2p)     0.98378       0.15430
 
    21    C    5  S      Cor( 1S)     1.99985     -10.99076
    22    C    5  S      Val( 2S)     1.06172      -0.18949
    23    C    5  px     Val( 2p)     0.94091       0.08712
    24    C    5  py     Val( 2p)     0.92065       0.10676
    25    C    5  pz     Val( 2p)     0.96434       0.14039
 
    26    C    6  S      Cor( 1S)     1.99990     -10.95110
    27    C    6  S      Val( 2S)     1.08570      -0.19454
    28    C    6  px     Val( 2p)     1.00054       0.07490
    29    C    6  py     Val( 2p)     0.97210       0.10609
    30    C    6  pz     Val( 2p)     0.96586       0.14818
 
    31    N    7  S      Cor( 1S)     1.99998     -15.27097
    32    N    7  S      Val( 2S)     1.40883      -0.59749
    33    N    7  px     Val( 2p)     1.24293      -0.05709
    34    N    7  py     Val( 2p)     1.53988      -0.17242
    35    N    7  pz     Val( 2p)     1.08096       0.01864
 
    36    C    8  S      Cor( 1S)     1.99996     -11.00892
    37    C    8  S      Val( 2S)     1.10732      -0.23421
    38    C    8  px     Val( 2p)     0.94345       0.10374
    39    C    8  py     Val( 2p)     0.97616       0.08185
    40    C    8  pz     Val( 2p)     0.95722       0.09980
 
    41    C    9  S      Cor( 1S)     1.99996     -11.05164
    42    C    9  S      Val( 2S)     1.11250      -0.25772
    43    C    9  px     Val( 2p)     0.91724       0.10199
    44    C    9  py     Val( 2p)     0.93685       0.08326
    45    C    9  pz     Val( 2p)     0.86035       0.10676
 
    46    C   10  S      Cor( 1S)     1.99994     -11.01626
    47    C   10  S      Val( 2S)     1.09220      -0.21584
    48    C   10  px     Val( 2p)     0.97218       0.07858
    49    C   10  py     Val( 2p)     0.91427       0.11886
    50    C   10  pz     Val( 2p)     0.94863       0.08472
 
    51    C   11  S      Cor( 1S)     1.99994     -10.98049
    52    C   11  S      Val( 2S)     1.10425      -0.21533
    53    C   11  px     Val( 2p)     0.99762       0.07999
    54    C   11  py     Val( 2p)     0.99442       0.08430
    55    C   11  pz     Val( 2p)     0.98826       0.08715
 
    56    C   12  S      Cor( 1S)     1.99996     -10.97713
    57    C   12  S      Val( 2S)     1.08883      -0.19748
    58    C   12  px     Val( 2p)     1.00523       0.08897
    59    C   12  py     Val( 2p)     1.00016       0.08777
    60    C   12  pz     Val( 2p)     0.98401       0.08826
 
    61    C   13  S      Cor( 1S)     1.99998     -11.00479
    62    C   13  S      Val( 2S)     1.10038      -0.22193
    63    C   13  px     Val( 2p)     0.94802       0.10677
    64    C   13  py     Val( 2p)     0.94540       0.10988
    65    C   13  pz     Val( 2p)     0.94259       0.11303
 
    66    N   14  S      Cor( 1S)     1.99999     -15.23562
    67    N   14  S      Val( 2S)     1.41163      -0.57820
    68    N   14  px     Val( 2p)     1.20998      -0.02072
    69    N   14  py     Val( 2p)     1.49577      -0.13453
    70    N   14  pz     Val( 2p)     1.16650      -0.00013
 
    71    C   15  S      Cor( 1S)     1.99994     -11.01135
    72    C   15  S      Val( 2S)     1.06945      -0.19137
    73    C   15  px     Val( 2p)     0.98495       0.07453
    74    C   15  py     Val( 2p)     1.01852       0.07966
    75    C   15  pz     Val( 2p)     0.88415       0.11982
 
    76    C   16  S      Cor( 1S)     1.99996     -10.97919
    77    C   16  S      Val( 2S)     1.08433      -0.19258
    78    C   16  px     Val( 2p)     0.96702       0.09903
    79    C   16  py     Val( 2p)     1.00650       0.08945
    80    C   16  pz     Val( 2p)     1.00108       0.09438
 
    81    C   17  S      Cor( 1S)     1.99995     -10.98042
    82    C   17  S      Val( 2S)     1.09039      -0.19859
    83    C   17  px     Val( 2p)     1.00033       0.09031
    84    C   17  py     Val( 2p)     1.00164       0.08986
    85    C   17  pz     Val( 2p)     0.97235       0.09480
 
    86    C   18  S      Cor( 1S)     1.99994     -10.98190
    87    C   18  S      Val( 2S)     1.09366      -0.20297
    88    C   18  px     Val( 2p)     0.99245       0.09035
    89    C   18  py     Val( 2p)     1.00175       0.08415
    90    C   18  pz     Val( 2p)     0.97816       0.08448
 
    91    C   19  S      Cor( 1S)     1.99995     -11.01068
    92    C   19  S      Val( 2S)     1.07061      -0.19374
    93    C   19  px     Val( 2p)     0.89351       0.11672
    94    C   19  py     Val( 2p)     1.01711       0.07814
    95    C   19  pz     Val( 2p)     0.97907       0.06831
 
    96    C   20  S      Cor( 1S)     1.99992     -10.98153
    97    C   20  S      Val( 2S)     1.10180      -0.20983
    98    C   20  px     Val( 2p)     1.00769       0.08751
    99    C   20  py     Val( 2p)     1.00678       0.08450
   100    C   20  pz     Val( 2p)     0.95075       0.09783
 
   101    C   21  S      Cor( 1S)     1.99994     -11.00906
   102    C   21  S      Val( 2S)     1.11355      -0.24091
   103    C   21  px     Val( 2p)     1.00039       0.06689
   104    C   21  py     Val( 2p)     0.97310       0.07795
   105    C   21  pz     Val( 2p)     0.99387       0.07354
 
   106    C   22  S      Cor( 1S)     1.99991     -11.11056
   107    C   22  S      Val( 2S)     1.05597      -0.26018
   108    C   22  px     Val( 2p)     0.87443      -0.00544
   109    C   22  py     Val( 2p)     0.88701       0.12462
   110    C   22  pz     Val( 2p)     0.78187       0.15957
 
   111    O   23  S      Cor( 1S)     1.99999     -20.09761
   112    O   23  S      Val( 2S)     1.80816      -1.05651
   113    O   23  px     Val( 2p)     1.33638      -0.15418
   114    O   23  py     Val( 2p)     1.45896      -0.16085
   115    O   23  pz     Val( 2p)     1.70428      -0.25947
 
   116    O   24  S      Cor( 1S)     1.99999     -20.21384
   117    O   24  S      Val( 2S)     1.72994      -1.02676
   118    O   24  px     Val( 2p)     1.75107      -0.32960
   119    O   24  py     Val( 2p)     1.49531      -0.22300
   120    O   24  pz     Val( 2p)     1.29184      -0.12880
 
   121    C   25  S      Cor( 1S)     1.99984     -11.04587
   122    C   25  S      Val( 2S)     1.07674      -0.22736
   123    C   25  px     Val( 2p)     0.99926       0.04846
   124    C   25  py     Val( 2p)     0.88200       0.07592
   125    C   25  pz     Val( 2p)     1.00724       0.03802
 
   126    C   26  S      Cor( 1S)     1.99992     -11.01651
   127    C   26  S      Val( 2S)     1.06557      -0.19736
   128    C   26  px     Val( 2p)     1.00747       0.06304
   129    C   26  py     Val( 2p)     1.02547       0.06276
   130    C   26  pz     Val( 2p)     0.91852       0.08454
 
   131    C   27  S      Cor( 1S)     1.99995     -10.98496
   132    C   27  S      Val( 2S)     1.08420      -0.19094
   133    C   27  px     Val( 2p)     0.97928       0.09624
   134    C   27  py     Val( 2p)     1.00698       0.08497
   135    C   27  pz     Val( 2p)     1.01654       0.08639
 
   136    C   28  S      Cor( 1S)     1.99990     -10.95727
   137    C   28  S      Val( 2S)     1.08019      -0.18534
   138    C   28  px     Val( 2p)     0.93697       0.17025
   139    C   28  py     Val( 2p)     0.95483       0.17879
   140    C   28  pz     Val( 2p)     1.01321       0.01716
 
   141    C   29  S      Cor( 1S)     1.99992     -10.94597
   142    C   29  S      Val( 2S)     1.07686      -0.17718
   143    C   29  px     Val( 2p)     0.97942       0.15696
   144    C   29  py     Val( 2p)     0.98161       0.15433
   145    C   29  pz     Val( 2p)     1.02672       0.00104
 
   146    C   30  S      Cor( 1S)     1.99994     -10.94720
   147    C   30  S      Val( 2S)     1.08492      -0.18304
   148    C   30  px     Val( 2p)     0.96540       0.16776
   149    C   30  py     Val( 2p)     0.97549       0.15702
   150    C   30  pz     Val( 2p)     1.00773       0.01033
 
   151    C   31  S      Cor( 1S)     1.99993     -10.94004
   152    C   31  S      Val( 2S)     1.07172      -0.17196
   153    C   31  px     Val( 2p)     0.98447       0.15575
   154    C   31  py     Val( 2p)     0.97320       0.16237
   155    C   31  pz     Val( 2p)     1.05928      -0.00228
 
   156    C   32  S      Cor( 1S)     1.99985     -10.98876
   157    C   32  S      Val( 2S)     1.05956      -0.18415
   158    C   32  px     Val( 2p)     0.88051       0.16925
   159    C   32  py     Val( 2p)     0.96245       0.16771
   160    C   32  pz     Val( 2p)     0.97835       0.01022
 
   161    C   33  S      Cor( 1S)     1.99990     -10.94900
   162    C   33  S      Val( 2S)     1.08520      -0.19279
   163    C   33  px     Val( 2p)     0.96736       0.17720
   164    C   33  py     Val( 2p)     0.94447       0.14916
   165    C   33  pz     Val( 2p)     1.02573       0.00904
 
   166    N   34  S      Cor( 1S)     1.99998     -15.26616
   167    N   34  S      Val( 2S)     1.39437      -0.58577
   168    N   34  px     Val( 2p)     1.09777       0.01999
   169    N   34  py     Val( 2p)     1.10282       0.00355
   170    N   34  pz     Val( 2p)     1.67598      -0.22302
 
   171    C   35  S      Cor( 1S)     1.99996     -11.01227
   172    C   35  S      Val( 2S)     1.10356      -0.23569
   173    C   35  px     Val( 2p)     0.97867       0.06624
   174    C   35  py     Val( 2p)     0.95430       0.11259
   175    C   35  pz     Val( 2p)     0.95248       0.09648
 
   176    C   36  S      Cor( 1S)     1.99996     -11.04930
   177    C   36  S      Val( 2S)     1.11486      -0.25598
   178    C   36  px     Val( 2p)     0.93072       0.08585
   179    C   36  py     Val( 2p)     0.85860       0.12644
   180    C   36  pz     Val( 2p)     0.91699       0.09451
 
   181    C   37  S      Cor( 1S)     1.99991     -11.03278
   182    C   37  S      Val( 2S)     1.10943      -0.24979
   183    C   37  px     Val( 2p)     1.00328       0.06125
   184    C   37  py     Val( 2p)     0.89666       0.08142
   185    C   37  pz     Val( 2p)     0.92188       0.07761
 
   186    C   38  S      Cor( 1S)     1.99993     -10.97815
   187    C   38  S      Val( 2S)     1.10889      -0.21701
   188    C   38  px     Val( 2p)     1.00703       0.08692
   189    C   38  py     Val( 2p)     0.99501       0.08948
   190    C   38  pz     Val( 2p)     0.97362       0.08190
 
   191    C   39  S      Cor( 1S)     1.99996     -10.97922
   192    C   39  S      Val( 2S)     1.09070      -0.20074
   193    C   39  px     Val( 2p)     1.01009       0.08510
   194    C   39  py     Val( 2p)     0.98207       0.08575
   195    C   39  pz     Val( 2p)     0.99200       0.08998
 
   196    C   40  S      Cor( 1S)     1.99998     -11.01212
   197    C   40  S      Val( 2S)     1.09912      -0.22664
   198    C   40  px     Val( 2p)     0.94927       0.10683
   199    C   40  py     Val( 2p)     0.94834       0.10327
   200    C   40  pz     Val( 2p)     0.94430       0.10065
 
   201    N   41  S      Cor( 1S)     1.99999     -15.41746
   202    N   41  S      Val( 2S)     1.39302      -0.65761
   203    N   41  px     Val( 2p)     1.26467      -0.13809
   204    N   41  py     Val( 2p)     1.16727      -0.10099
   205    N   41  pz     Val( 2p)     1.14229      -0.09935
 
   206    C   42  S      Cor( 1S)     1.99992     -11.03799
   207    C   42  S      Val( 2S)     1.09136      -0.23486
   208    C   42  px     Val( 2p)     0.91568       0.08088
   209    C   42  py     Val( 2p)     0.94835       0.06399
   210    C   42  pz     Val( 2p)     0.99469       0.05239
 
   211    C   43  S      Cor( 1S)     1.99995     -10.99147
   212    C   43  S      Val( 2S)     1.08724      -0.20539
   213    C   43  px     Val( 2p)     1.01677       0.08089
   214    C   43  py     Val( 2p)     0.99751       0.07821
   215    C   43  pz     Val( 2p)     0.96190       0.09356
 
   216    C   44  S      Cor( 1S)     1.99994     -10.98726
   217    C   44  S      Val( 2S)     1.09179      -0.20581
   218    C   44  px     Val( 2p)     1.00097       0.08643
   219    C   44  py     Val( 2p)     0.98163       0.08919
   220    C   44  pz     Val( 2p)     0.98814       0.08362
 
   221    C   45  S      Cor( 1S)     1.99993     -10.98571
   222    C   45  S      Val( 2S)     1.09855      -0.20819
   223    C   45  px     Val( 2p)     1.00809       0.08070
   224    C   45  py     Val( 2p)     0.99331       0.08289
   225    C   45  pz     Val( 2p)     0.96694       0.09388
 
   226    C   46  S      Cor( 1S)     1.99993     -11.03257
   227    C   46  S      Val( 2S)     1.09451      -0.23390
   228    C   46  px     Val( 2p)     0.99213       0.06740
   229    C   46  py     Val( 2p)     0.95658       0.05903
   230    C   46  pz     Val( 2p)     0.91106       0.07369
 
   231    C   47  S      Cor( 1S)     1.99991     -10.97369
   232    C   47  S      Val( 2S)     1.10327      -0.20136
   233    C   47  px     Val( 2p)     0.94847       0.10778
   234    C   47  py     Val( 2p)     1.00182       0.10001
   235    C   47  pz     Val( 2p)     1.00706       0.09540
 
   236    C   48  S      Cor( 1S)     1.99994     -11.00273
[...]
 NLMO      Total    Paramagnetic  Diamagnetic   Paramagnetic  Diamagnetic
   99       1.8451       -1.1040       2.9491         1.2629       0.5822
  102       0.8931       -0.1908       1.0838        -0.1861       1.0792
  103       1.5890       -0.0441       1.6330        -0.2322       1.8212
  104      26.2600        0.8637      25.3964         0.5401      25.7199
  105       0.2415       -1.2959       1.5373        -0.4162       0.6577
  107       0.0854       -1.3387       1.4241        -0.8279       0.9133
 Sum       30.9141       -3.1097      34.0238         0.1406      30.7735

 Contributions to Isotropic shielding for atom   94 (    31.1734 ppm):
                         Standard Origin              Atomic Origin
 NLMO      Total    Paramagnetic  Diamagnetic   Paramagnetic  Diamagnetic
   99      -0.5788        0.4622      -1.0410        -1.4491       0.8703
  102       1.2149        0.7990       0.4159         0.3146       0.9003
  105       0.6782        2.5552      -1.8770        -0.4953       1.1735
  106      25.7913       -0.3131      26.1044         0.5565      25.2349
  107       1.9907        2.9091      -0.9184         0.1557       1.8350
  109       0.1125        0.2276      -0.1150        -0.8969       1.0094
  116      -0.2359       -1.4572       1.2212        -0.5639       0.3280
  195       0.0796       -0.1579       0.2374         1.0021      -0.9225
 Sum       29.0524        5.0249      24.0275        -1.3764      30.4288

 Contributions to Isotropic shielding for atom   95 (    32.4408 ppm):
                         Standard Origin              Atomic Origin
 NLMO      Total    Paramagnetic  Diamagnetic   Paramagnetic  Diamagnetic
  102       1.6144       -0.2515       1.8659         0.6471       0.9672
  105       1.1555        1.1313       0.0242         0.0483       1.1072
  106       1.8595        3.3383      -1.4788         0.0164       1.8431
  107      26.2304        0.0683      26.1621         0.4177      25.8127
  108       0.0643       -0.3065       0.3708        -1.0636       1.1279
 Sum       30.9240        3.9799      26.9441         0.0659      30.8582

 Contributions to Isotropic shielding for atom   96 (    32.8929 ppm):
                         Standard Origin              Atomic Origin
 NLMO      Total    Paramagnetic  Diamagnetic   Paramagnetic  Diamagnetic
   94      -0.0586       -0.5255       0.4669        -1.0047       0.9461
   97       1.8078       -0.8748       2.6826         0.8525       0.9553
  102       0.2282       -0.9082       1.1364        -0.3009       0.5290
  105       1.5017       -1.0755       2.5772         0.3639       1.1378
  107      -0.0075       -0.6714       0.6640        -1.0307       1.0233
  108      26.3868        0.4943      25.8926         0.3320      26.0548
  109       1.6664        2.1676      -0.5012        -0.1740       1.8404
 Sum       31.5249       -1.3935      32.9184        -0.9619      32.4868

 Contributions to Isotropic shielding for atom   97 (    32.2228 ppm):
                         Standard Origin              Atomic Origin
 NLMO      Total    Paramagnetic  Diamagnetic   Paramagnetic  Diamagnetic
   97       0.7071        2.1580      -1.4508        -0.2635       0.9706
   98      -0.2373        1.0086      -1.2459        -1.2224       0.9851
  105       0.7308        2.3885      -1.6576        -0.3487       1.0796
  106       0.1074        0.3401      -0.2327        -1.0060       1.1134
  108       2.2173        1.2359       0.9814         0.4895       1.7278
  109      26.3869       -0.2547      26.6416         0.6325      25.7544
  117       0.0635       -1.0341       1.0975        -0.7952       0.8586
 Sum       29.9758        5.8423      24.1335        -2.5138      32.4896

 Contributions to Isotropic shielding for atom   98 (    32.8444 ppm):
                         Standard Origin              Atomic Origin
 NLMO      Total    Paramagnetic  Diamagnetic   Paramagnetic  Diamagnetic
   71      -0.5342       -0.4736      -0.0606        -1.5522       1.0180
   80       0.1219        0.0862       0.0357        -0.9702       1.0920
   81       0.2489       -0.7703       1.0192        -0.5523       0.8011
   85       1.2036       -0.2162       1.4198         0.5729       0.6307
  110       1.2772       -0.4536       1.7308         0.4690       0.8082
  111      26.0477        0.3056      25.7421         0.5693      25.4784
  112       1.7622        2.5555      -0.7933        -0.1638       1.9260
  121       0.0751       -1.4611       1.5362        -0.7272       0.8023
  191      -0.3771        0.7933      -1.1705         0.3020      -0.6791
 Sum       29.8253        0.3660      29.4593        -2.0525      31.8777

 Contributions to Isotropic shielding for atom   99 (    31.4097 ppm):
                         Standard Origin              Atomic Origin
 NLMO      Total    Paramagnetic  Diamagnetic   Paramagnetic  Diamagnetic
   83      -0.3936        1.0263      -1.4199        -0.7825       0.3888
   85       0.4462        1.3443      -0.8981        -0.3583       0.8045
   89      -0.1468       -0.1269      -0.0199        -1.0314       0.8846
  100      -0.3868        0.2176      -0.6045        -1.2353       0.8484
  110       1.0593        0.9289       0.1304         0.3347       0.7246
  111       1.7105        1.9829      -0.2724        -0.2089       1.9194
  112      25.5360       -0.1346      25.6706         0.6457      24.8903
  114       0.0642        0.5867      -0.5225        -0.9362       1.0005
  118       0.8188       -1.3371       2.1559        -0.0102       0.8290
  120       1.5192       -0.8811       2.4004         0.6658       0.8534
  121      -0.1747       -3.9867       3.8120        -1.2120       1.0373
  123       0.3181       -1.0808       1.3989        -0.4403       0.7584
  126      -0.0179       -1.2505       1.2326        -0.4704       0.4525
  191      -0.8160        1.7747      -2.5906         0.1491      -0.9651
  195       0.0136        0.1258      -0.1122         1.0362      -1.0226
 Sum       29.5501       -0.8105      30.3606        -3.8539      33.4040

 Contributions to Isotropic shielding for atom  100 (    32.0864 ppm):
                         Standard Origin              Atomic Origin
 NLMO      Total    Paramagnetic  Diamagnetic   Paramagnetic  Diamagnetic
   71       0.1524       -0.5511       0.7035        -0.9876       1.1401
   85       0.3550       -0.8687       1.2238        -0.4289       0.7840
  100       1.4469       -0.7590       2.2058         0.9919       0.4550
  110       0.9411       -0.5360       1.4771         0.1065       0.8346
  111       0.1291       -0.9981       1.1273        -0.7681       0.8972
  113      26.2512        0.8506      25.4006         0.5491      25.7020
  114       1.4819        0.1059       1.3760        -0.3589       1.8408
 Sum       30.7577       -2.7564      33.5141        -0.8960      31.6537

 Contributions to Isotropic shielding for atom  101 (    31.1458 ppm):
                         Standard Origin              Atomic Origin
 NLMO      Total    Paramagnetic  Diamagnetic   Paramagnetic  Diamagnetic
  100      -0.0432        1.1438      -1.1869        -0.8143       0.7711
  101       0.0246       -0.2291       0.2536        -0.9956       1.0202
  110       0.3575        1.6055      -1.2480        -0.6278       0.9853
  112       0.1444       -0.4946       0.6391        -0.8878       1.0323
  113       1.9725       -0.6996       2.6721         0.2837       1.6887
  114      25.8243        0.4915      25.3328         0.9502      24.8741
 Sum       28.2801        1.8175      26.4626        -2.0916      30.3717

 Contributions to Isotropic shielding for atom  102 (    29.9446 ppm):
                         Standard Origin              Atomic Origin
 NLMO      Total    Paramagnetic  Diamagnetic   Paramagnetic  Diamagnetic
   87       0.3853       -0.8893       1.2746         0.2789       0.1064
   89      -0.6152        0.3099      -0.9251        -1.5134       0.8982
   97      -0.2164        1.1243      -1.3407        -1.0365       0.8201
   98       1.9096       -1.4734       3.3830         1.0002       0.9094
  115       0.5284        1.6628      -1.1344        -0.3460       0.8744
  116      25.2438        0.0220      25.2218         0.6082      24.6356
  117       1.2546        3.2627      -2.0081        -0.6650       1.9196
  118      -0.2701       -0.1364      -0.1337        -1.2200       0.9499
  122       1.3121       -1.9490       3.2611         0.1031       1.2090
  125       0.1167       -0.9566       1.0733        -0.5628       0.6795
  126       0.1633       -1.1083       1.2716        -0.4825       0.6458
  193      -1.3198        1.2850      -2.6048         0.0885      -1.4083
  194      -0.4165       -1.2171       0.8006        -0.8653       0.4488
 Sum       28.0758       -0.0633      28.1391        -4.6126      32.6884

 Contributions to Isotropic shielding for atom  103 (    31.8601 ppm):
                         Standard Origin              Atomic Origin
 NLMO      Total    Paramagnetic  Diamagnetic   Paramagnetic  Diamagnetic
   87       0.3410       -0.7131       1.0540         0.0622       0.2788
   94      -0.3896        1.6737      -2.0633        -1.3517       0.9621
   97      -0.1557        1.3552      -1.5109        -0.7644       0.6087
   98       1.6120       -0.0039       1.6159         0.6295       0.9825
  115       0.4065        3.3870      -2.9804        -0.7027       1.1092
  116       1.8372        3.1992      -1.3620        -0.2055       2.0427
  117      26.8009       -0.5443      27.3452         0.7064      26.0944
  119      -0.1783       -0.7389       0.5606        -1.3180       1.1396
  122       0.5921       -0.9338       1.5259        -0.5251       1.1172
 Sum       30.8661        6.6811      24.1850        -3.4691      34.3352

 Contributions to Isotropic shielding for atom  104 (    31.4625 ppm):
                         Standard Origin              Atomic Origin
 NLMO      Total    Paramagnetic  Diamagnetic   Paramagnetic  Diamagnetic
   81      -0.7675        1.6321      -2.3996        -1.4620       0.6945
   82      -0.0326        0.0145      -0.0471        -1.0015       0.9689
   86      -0.3794        1.6865      -2.0658        -1.5035       1.1241
   87       1.5059        0.9825       0.5233         0.5841       0.9217
  115       1.2989        2.7588      -1.4599         0.0286       1.2703
  117      -0.1842        0.4639      -0.6481        -1.3327       1.1485
  118       0.2307        5.5632      -5.3325        -0.8791       1.1097
  119      26.2074       -0.9299      27.1373         0.5062      25.7012
  122       0.1404       -0.8365       0.9769        -1.2002       1.3406
  127      -0.2314       -2.7154       2.4840        -0.7146       0.4831
 Sum       27.7881        8.6196      19.1685        -6.9745      34.7626

 Contributions to Isotropic shielding for atom  105 (    30.6241 ppm):
                         Standard Origin              Atomic Origin
 NLMO      Total    Paramagnetic  Diamagnetic   Paramagnetic  Diamagnetic
  120      -1.2720        0.7970      -2.0689        -2.1603       0.8883
  121      -0.4682        2.0601      -2.5283        -2.0283       1.5601
  122      -1.7254        1.0352      -2.7606        -2.4990       0.7735
  123       0.9293        1.2302      -0.3009        -0.5751       1.5044
  124      26.5682        0.5556      26.0126         1.2021      25.3662
  125       1.1449        4.5578      -3.4130        -0.8864       2.0312
  126       1.6170        0.4914       1.1255        -0.2540       1.8710
  191       0.5683       -1.6086       2.1770         1.3354      -0.7670
  192       0.7503        0.9981      -0.2478         1.0103      -0.2600
  193       1.5745       -1.1486       2.7231         1.6230      -0.0485
 Sum       29.6869        8.9681      20.7188        -3.2323      32.9192

 Contributions to Isotropic shielding for atom  106 (    30.6657 ppm):
                         Standard Origin              Atomic Origin
 NLMO      Total    Paramagnetic  Diamagnetic   Paramagnetic  Diamagnetic
  120      -0.5903        0.2228      -0.8131        -1.2181       0.6278
  121      -0.0591        0.9395      -0.9986        -1.1029       1.0438
  123       0.9455        1.3357      -0.3902        -1.1414       2.0870
  124       0.5893        4.1076      -3.5183        -1.3851       1.9745
  125      26.1166        0.3846      25.7321         0.8317      25.2849
  126       1.5810        0.4463       1.1348        -0.4193       2.0004
  193       0.8392       -0.8896       1.7287         1.3073      -0.4681
 Sum       29.4223        6.5468      22.8755        -3.1278      32.5501

 Contributions to Isotropic shielding for atom  107 (    30.6065 ppm):
                         Standard Origin              Atomic Origin
 NLMO      Total    Paramagnetic  Diamagnetic   Paramagnetic  Diamagnetic
  120      -0.7098        0.4536      -1.1634        -1.6143       0.9045
  121      -0.3084        0.9808      -1.2892        -1.8519       1.5434
  122      -0.8920        1.0184      -1.9104        -1.7823       0.8903
  123       2.9276       -5.6336       8.5612         1.5254       1.4022
  124       1.2167        1.2849      -0.0682        -0.6476       1.8642
  125       1.5675        0.9022       0.6653        -0.4686       2.0361
  126      25.9512        1.0739      24.8773         0.8530      25.0982
 Sum       29.7528        0.0801      29.6727        -3.9862      33.7390

 Contributions to Isotropic shielding for atom  108 (    31.5325 ppm):
                         Standard Origin              Atomic Origin
 NLMO      Total    Paramagnetic  Diamagnetic   Paramagnetic  Diamagnetic
   76      -0.6454        0.0840      -0.7294        -1.4819       0.8365
   81      -0.5843        1.4798      -2.0641        -1.3095       0.7252
   82       1.3553       -0.7486       2.1039         0.1511       1.2042
   86      -0.2255        0.9877      -1.2132        -0.9702       0.7446
   87      -0.2911        1.3671      -1.6582        -1.1864       0.8953
  121      -0.0754       -0.1072       0.0319        -1.1407       1.0654
  127      26.0451        0.1243      25.9207         0.6217      25.4234
  128       1.5701        3.9437      -2.3736        -0.4194       1.9895
  129       1.3608        1.8402      -0.4794        -0.4510       1.8118
  190       1.2187        0.0426       1.1761         1.2003       0.0184
 Sum       29.7283        9.0135      20.7148        -4.9860      34.7143

 Contributions to Isotropic shielding for atom  109 (    30.8107 ppm):
                         Standard Origin              Atomic Origin
 NLMO      Total    Paramagnetic  Diamagnetic   Paramagnetic  Diamagnetic
   75      -0.6130        0.9262      -1.5392        -1.3195       0.7066
   76      -1.1193        0.3579      -1.4772        -2.4734       1.3541
   79      -0.5404        1.1808      -1.7212        -1.1719       0.6315
   82       1.5692       -0.8103       2.3795         0.3638       1.2053
  127       1.5396        3.9204      -2.3808        -0.4289       1.9685
  128      25.9500        0.1403      25.8097         0.6570      25.2930
  129       1.4573        1.8846      -0.4273        -0.3419       1.7992
 Sum       28.2435        7.5999      20.6435        -4.7148      32.9582

 Contributions to Isotropic shielding for atom  110 (    31.9932 ppm):
                         Standard Origin              Atomic Origin
 NLMO      Total    Paramagnetic  Diamagnetic   Paramagnetic  Diamagnetic
   75      -0.3633        0.8397      -1.2030        -0.9622       0.5990
   76      -1.0926        0.1901      -1.2827        -2.2649       1.1723
   79      -0.4890        1.0298      -1.5188        -1.0145       0.5254
   82       1.9745       -2.9703       4.9448         1.1974       0.7771
   86      -0.2873        0.8200      -1.1073        -1.3570       1.0697
   92      -0.0273        1.1555      -1.1828        -0.8710       0.8436
  127       1.8055        2.7732      -0.9677        -0.0981       1.9036
  128       1.8258        2.7812      -0.9554        -0.0769       1.9027
  129      26.6540        0.7368      25.9172         0.9220      25.7321
 Sum       30.0001        7.3559      22.6442        -4.5252      34.5254
 
 1\1\GINC-PCSN02\SP\RHF\STO-3G\C45H56N4O5\ABENIDD\30-May-2024\0\\# nmr=
 giao hf/sto-3g pop=nbo geom=connectivity\\Pleiokomenine_C_2\\0,1\C,0,0
 .,0.,0.\C,0,1.4024,0.,0.\C,0,2.1012,1.2266,0.\C,0,1.4217,2.4508,-0.001
 3\C,0,0.0385,2.4459,0.003\C,0,-0.6576,1.2195,0.0234\N,0,-0.8438,3.5639
 ,-0.0051\C,0,-2.1262,1.5216,0.1959\C,0,-2.1177,2.9493,-0.4623\C,0,-3.2
 089,0.6738,-0.4717\C,0,-2.0606,2.7889,-2.0494\C,0,-3.2479,1.9829,-2.58
 06\C,0,-4.1129,1.5119,-1.4052\N,0,-4.0562,0.2416,0.6392\C,0,-5.0072,-0
 .7769,0.257\C,0,-5.9828,-0.1344,-0.7438\C,0,-5.2765,0.6145,-1.8896\C,0
 ,-2.393,1.3302,1.7147\C,0,-3.203,0.0333,1.782\C,0,-4.6183,2.8016,-0.66
 58\C,0,-3.4331,3.7203,-0.2232\C,0,-3.6427,4.3179,1.1586\O,0,-4.521,3.9
 925,1.9472\O,0,-2.7712,5.3433,1.3768\C,0,-2.8979,5.9586,2.6582\C,0,-0.
 3403,4.7875,-0.6113\C,0,2.1618,-1.3069,0.1107\C,0,2.6047,-1.6695,1.517
 2\C,0,1.8673,-1.2834,2.6466\C,0,3.7486,-2.4817,1.6921\C,0,4.1876,-2.87
 33,2.9658\C,0,3.4791,-2.4484,4.0727\C,0,2.313,-1.6726,3.8985\N,0,3.771
 1,-2.6533,5.4479\C,0,1.6833,-1.474,5.259\C,0,3.0191,-1.543,6.0797\C,0,
 0.9722,-0.1921,5.6565\C,0,3.8695,-0.1916,5.8357\C,0,3.0339,1.0654,6.09
 2\C,0,1.692,0.6527,6.7174\N,0,-0.4033,-0.6148,6.1481\C,0,-1.2763,0.596
 4,6.1575\C,0,-0.7,1.5993,7.1774\C,0,0.8095,1.8914,7.0092\C,0,0.5565,-2
 .547,5.2974\C,0,-0.7373,-1.7166,5.2124\C,0,2.0787,-0.1837,7.9856\C,0,2
 .8018,-1.5315,7.61\C,0,2.1758,-2.7746,8.2246\O,0,2.2001,-3.8982,7.7396
 \O,0,1.7217,-2.5075,9.4849\C,0,1.0631,-3.6078,10.1093\C,0,5.1322,-2.97
 2,5.8304\O,0,-0.439,-1.1654,7.4058\H,0,-0.5554,-0.9319,0.0432\H,0,3.18
 95,1.2289,0.0252\H,0,1.984,3.3773,0.0098\H,0,-2.7692,-0.1841,-0.9985\H
 ,0,-1.1327,2.3105,-2.3864\H,0,-2.0582,3.777,-2.5286\H,0,-3.8365,2.5971
 ,-3.2734\H,0,-2.8785,1.1287,-3.1619\H,0,-4.512,-1.6487,-0.1867\H,0,-5.
 5762,-1.1251,1.1263\H,0,-6.6411,-0.9049,-1.1614\H,0,-6.6311,0.5716,-0.
 2088\H,0,-4.8836,-0.1369,-2.5875\H,0,-6.0105,1.2054,-2.4503\H,0,-1.492
 1,1.2486,2.3348\H,0,-2.9862,2.1387,2.1377\H,0,-2.5646,-0.8507,1.6739\H
 ,0,-3.7607,-0.0364,2.7206\H,0,-5.2551,2.5314,0.1828\H,0,-5.2668,3.3745
 ,-1.3427\H,0,-3.4615,4.5958,-0.8901\H,0,-2.7412,5.2248,3.4552\H,0,-3.8
 771,6.4372,2.7569\H,0,-2.126,6.7286,2.7416\H,0,0.0843,4.6105,-1.6059\H
 ,0,0.4301,5.2386,0.0233\H,0,-1.1404,5.5265,-0.7164\H,0,1.5458,-2.1273,
 -0.2794\H,0,3.0389,-1.2432,-0.5468\H,0,0.9577,-0.7013,2.5526\H,0,4.312
 2,-2.8181,0.8236\H,0,5.0727,-3.4908,3.066\H,0,0.7834,0.4122,4.7565\H,0
 ,4.2963,-0.1249,4.8275\H,0,4.743,-0.1873,6.5024\H,0,3.5835,1.754,6.745
 5\H,0,2.8743,1.5992,5.1462\H,0,-2.2808,0.265,6.4408\H,0,-1.2974,1.0029
 ,5.141\H,0,-0.8622,1.2145,8.192\H,0,-1.2606,2.5392,7.1155\H,0,0.9054,2
 .596,6.1717\H,0,1.1796,2.4211,7.8952\H,0,0.5822,-3.2852,4.4874\H,0,0.5
 564,-3.1118,6.229\H,0,-0.9123,-1.2815,4.2233\H,0,-1.6248,-2.2416,5.577
 \H,0,1.2258,-0.3257,8.652\H,0,2.7785,0.4121,8.5903\H,0,3.7898,-1.503,8
 .0946\H,0,1.7778,-4.41,10.3175\H,0,0.6477,-3.2594,11.0589\H,0,0.2398,-
 3.9724,9.4866\H,0,5.2146,-3.0507,6.9189\H,0,5.4317,-3.9419,5.4192\H,0,
 5.8432,-2.2124,5.4882\\Version=ES64L-G16RevB.01\State=1-A\HF=-2300.196
 8818\RMSD=3.884e-09\Dipole=0.3359199,1.2620216,-1.4005458\Quadrupole=2
 .9398677,-0.745775,-2.1940928,3.4055868,6.8092213,5.633665\PG=C01 [X(C
 45H56N4O5)]\\@


      SCIENCE SANS CONSCIENCE N'EST QUE RUINE DE L'AME.

                                                  -- RABELAIS
 Job cpu time:       0 days  0 hours 11 minutes 30.3 seconds.
 Elapsed time:       0 days  0 hours  1 minutes 56.0 seconds.
 File lengths (MBytes):  RWF=     67 Int=      0 D2E=      0 Chk=     10 Scr=      1
 Normal termination of Gaussian 16 at Thu May 30 09:53:17 2024.
