 Entering Gaussian System, Link 0=g16
 Input=2_pleiokomenine_2a_c_25.gjf
 Output=2_pleiokomenine_2a_c_25.log
 Initial command:
 /opt/gaussian/g16/l1.exe "/data/abenidd/Elvis/pleiokomenine_C/NMR_HF/2a/2_pleiokomenine_2a_c_25/Gau-28379.inp" -scrdir="/data/abenidd/Elvis/pleiokomenine_C/NMR_HF/2a/2_pleiokomenine_2a_c_25/"
 Entering Link 1 = /opt/gaussian/g16/l1.exe PID=     28381.
  
 Copyright (c) 1988-2017, Gaussian, Inc.  All Rights Reserved.
  
 This is part of the Gaussian(R) 16 program.  It is based on
 the Gaussian(R) 09 system (copyright 2009, Gaussian, Inc.),
 the Gaussian(R) 03 system (copyright 2003, Gaussian, Inc.),
 the Gaussian(R) 98 system (copyright 1998, Gaussian, Inc.),
 the Gaussian(R) 94 system (copyright 1995, Gaussian, Inc.),
 the Gaussian 92(TM) system (copyright 1992, Gaussian, Inc.),
 the Gaussian 90(TM) system (copyright 1990, Gaussian, Inc.),
 the Gaussian 88(TM) system (copyright 1988, Gaussian, Inc.),
 the Gaussian 86(TM) system (copyright 1986, Carnegie Mellon
 University), and the Gaussian 82(TM) system (copyright 1983,
 Carnegie Mellon University). Gaussian is a federally registered
 trademark of Gaussian, Inc.
  
 This software contains proprietary and confidential information,
 including trade secrets, belonging to Gaussian, Inc.
  
 This software is provided under written license and may be
 used, copied, transmitted, or stored only in accord with that
 written license.
  
 The following legend is applicable only to US Government
 contracts under FAR:
  
                    RESTRICTED RIGHTS LEGEND
  
 Use, reproduction and disclosure by the US Government is
 subject to restrictions as set forth in subparagraphs (a)
 and (c) of the Commercial Computer Software - Restricted
 Rights clause in FAR 52.227-19.
  
 Gaussian, Inc.
 340 Quinnipiac St., Bldg. 40, Wallingford CT 06492
  
  
 ---------------------------------------------------------------
 Warning -- This program may not be used in any manner that
 competes with the business of Gaussian, Inc. or will provide
 assistance to any competitor of Gaussian, Inc.  The licensee
 of this program is prohibited from giving any competitor of
 Gaussian, Inc. access to this program.  By using this program,
 the user acknowledges that Gaussian, Inc. is engaged in the
 business of creating and licensing software in the field of
 computational chemistry and represents and warrants to the
 licensee that it is not a competitor of Gaussian, Inc. and that
 it will not use this program in any manner prohibited above.
 ---------------------------------------------------------------
  

 Cite this work as:
 Gaussian 16, Revision B.01,
 M. J. Frisch, G. W. Trucks, H. B. Schlegel, G. E. Scuseria, 
 M. A. Robb, J. R. Cheeseman, G. Scalmani, V. Barone, 
 G. A. Petersson, H. Nakatsuji, X. Li, M. Caricato, A. V. Marenich, 
 J. Bloino, B. G. Janesko, R. Gomperts, B. Mennucci, H. P. Hratchian, 
 J. V. Ortiz, A. F. Izmaylov, J. L. Sonnenberg, D. Williams-Young, 
 F. Ding, F. Lipparini, F. Egidi, J. Goings, B. Peng, A. Petrone, 
 T. Henderson, D. Ranasinghe, V. G. Zakrzewski, J. Gao, N. Rega, 
 G. Zheng, W. Liang, M. Hada, M. Ehara, K. Toyota, R. Fukuda, 
 J. Hasegawa, M. Ishida, T. Nakajima, Y. Honda, O. Kitao, H. Nakai, 
 T. Vreven, K. Throssell, J. A. Montgomery, Jr., J. E. Peralta, 
 F. Ogliaro, M. J. Bearpark, J. J. Heyd, E. N. Brothers, K. N. Kudin, 
 V. N. Staroverov, T. A. Keith, R. Kobayashi, J. Normand, 
 K. Raghavachari, A. P. Rendell, J. C. Burant, S. S. Iyengar, 
 J. Tomasi, M. Cossi, J. M. Millam, M. Klene, C. Adamo, R. Cammi, 
 J. W. Ochterski, R. L. Martin, K. Morokuma, O. Farkas, 
 J. B. Foresman, and D. J. Fox, Gaussian, Inc., Wallingford CT, 2016.
 
 ******************************************
 Gaussian 16:  ES64L-G16RevB.01 20-Dec-2017
                30-May-2024 
 ******************************************
 %nprocshared=8
 Will use up to    8 processors via shared memory.
 ----------------------------------------------
 # nmr=giao hf/sto-3g pop=nbo geom=connectivity
 ----------------------------------------------
 1/38=1,57=2,172=1/1;
 2/12=2,17=6,18=5,40=1/2;
 3/6=3,11=9,25=1,30=1/1,2,3,8;
 4//1;
 5/5=2,38=5/2;
 8/6=1,10=90,11=11/1;
 10/13=100,45=16/2;
 6/7=2,8=2,9=2,10=2,28=1,40=1,64=1/1,7;
 99/9=1/99;
 -----------------
 Pleiokomenine_C_2
 -----------------
 Symbolic Z-matrix:
 Charge =  0 Multiplicity = 1
 C                     0.        0.        0. 
 C                     1.4023    0.        0. 
 C                     2.095     1.229     0. 
 C                     1.4092    2.4508    0.0101 
 C                     0.0254    2.4435    0.0135 
 C                    -0.6629    1.2178    0.0268 
 N                    -0.8567    3.5567    0.0059 
 C                    -2.1399    1.4935    0.1621 
 C                    -2.1347    2.9491   -0.449 
 C                    -3.1676    0.6341   -0.5872 
 C                    -2.1257    2.8377   -2.0359 
 C                    -3.3859    2.1303   -2.551 
 C                    -4.1704    1.5649   -1.3507 
 N                    -3.7515   -0.2279    0.4419 
 C                    -4.9864   -0.898     0.0607 
 C                    -6.0136   -0.0114   -0.643 
 C                    -5.3869    0.7492   -1.8118 
 C                    -2.4795    1.2887    1.6593 
 C                    -3.7881    0.5105    1.694 
 C                    -4.6254    2.816    -0.5243 
 C                    -3.4268    3.7222   -0.1318 
 C                    -3.5644    4.2844    1.2718 
 O                    -4.3133    3.8465    2.136 
 O                    -2.7926    5.3978    1.4221 
 C                    -2.8513    5.9784    2.7247 
 C                    -0.3542    4.7865   -0.5883 
 C                     2.1661   -1.309     0.0406 
 C                     1.8802   -2.1833    1.2484 
 C                     1.6397   -1.6242    2.5145 
 C                     1.8797   -3.5895    1.1005 
 C                     1.6224   -4.4386    2.1836 
 C                     1.3655   -3.8725    3.4182 
 C                     1.36     -2.4728    3.5734 
 N                     1.1697   -4.5844    4.6545 
 C                     0.8528   -2.1592    4.9599 
 C                     1.3464   -3.4767    5.6404 
 C                     1.3912   -0.9956    5.7786 
 C                     2.9783   -3.4195    5.7702 
 C                     3.4724   -2.1239    6.4124 
 C                     2.2628   -1.3785    6.9851 
 N                     0.1724   -0.2064    6.2257 
 C                     0.635     1.1412    6.6752 
 C                     1.5581    0.9598    7.896 
 C                     2.6926   -0.0693    7.6898 
 C                    -0.6406   -1.7838    4.7284 
 C                    -0.6941   -0.275     5.0219 
 C                     1.5701   -2.4168    7.9282 
 C                     0.9391   -3.6251    7.1312 
 C                    -0.5284   -3.8169    7.5005 
 O                    -1.4347   -4.1321    6.7429 
 O                    -0.6795   -3.7456    8.8597 
 C                    -2.0324   -3.8565    9.2992 
 C                    -0.0455   -5.3854    4.6162 
 O                    -0.545    -0.7714    7.2513 
 H                    -0.5605   -0.9313    0.0323 
 H                     3.1831    1.2406    0.0047 
 H                     1.9685    3.3792    0.0195 
 H                    -2.6711   -0.0221   -1.315 
 H                    -2.0671    3.834    -2.4928 
 H                    -1.2417    2.2996   -2.4005 
 H                    -4.0043    2.8349   -3.1213 
 H                    -3.1014    1.3352   -3.2513 
 H                    -4.7213   -1.7174   -0.6201 
 H                    -5.4458   -1.3808    0.9318 
 H                    -6.8326   -0.6363   -1.0184 
 H                    -6.4611    0.6864    0.0729 
 H                    -5.0818    0.0267   -2.5801 
 H                    -6.1385    1.3993   -2.2754 
 H                    -1.7222    0.6637    2.1541 
 H                    -2.5125    2.2065    2.2451 
 H                    -3.8135   -0.1662    2.555 
 H                    -4.6486    1.1761    1.7776 
 H                    -5.2208    2.5253    0.3413 
 H                    -5.314     3.4165   -1.1362 
 H                    -3.4848    4.609    -0.7817 
 H                    -2.5311    5.2566    3.4829 
 H                    -3.8618    6.3418    2.9356 
 H                    -2.1653    6.8296    2.7471 
 H                     0.0716    4.6184   -1.584 
 H                     0.4148    5.2331    0.051 
 H                    -1.1551    5.5254   -0.6875 
 H                     1.9242   -1.8545   -0.8809 
 H                     3.2465   -1.119     0.0162 
 H                     1.6163   -0.5477    2.6498 
 H                     2.0854   -4.0344    0.1288 
 H                     1.6537   -5.5154    2.0612 
 H                     1.9464   -0.3144    5.1161 
 H                     3.4918   -3.5413    4.8079 
 H                     3.3178   -4.2805    6.3638 
 H                     4.2128   -2.3484    7.19 
 H                     3.9889   -1.5118    5.6619 
 H                    -0.2606    1.7179    6.9289 
 H                     1.1505    1.6154    5.8336 
 H                     0.9583    0.6415    8.7577 
 H                     1.992     1.9289    8.1678 
 H                     3.1621   -0.2933    8.6552 
 H                     3.4649    0.4216    7.0818 
 H                    -1.0247   -1.9818    3.7207 
 H                    -1.3069   -2.3005    5.415 
 H                    -1.6926    0.0918    5.276 
 H                    -0.2344    0.3359    4.2386 
 H                     0.8585   -1.9286    8.5983 
 H                     2.3267   -2.8278    8.613 
 H                     1.4027   -4.5501    7.5079 
 H                    -2.4155   -4.862     9.0999 
 H                    -2.0525   -3.6862    10.3792 
 H                    -2.66     -3.0986    8.8194 
 H                    -0.9362   -4.783     4.4106 
 H                    -0.1704   -5.9213    5.5615 
 H                     0.0245   -6.1584    3.842 
 
 Stoichiometry    C45H56N4O5
 Framework group  C1[X(C45H56N4O5)]
 Deg. of freedom   324
 Full point group                 C1      NOp   1
 Largest Abelian subgroup         C1      NOp   1
 Largest concise Abelian subgroup C1      NOp   1
                         Standard orientation:                         
 ---------------------------------------------------------------------
 Center     Atomic      Atomic             Coordinates (Angstroms)
 Number     Number       Type             X           Y           Z
 ---------------------------------------------------------------------
      1          6           0       -1.884074   -2.135205   -0.912858
      2          6           0       -1.313862   -2.605610   -2.104505
      3          6           0       -1.723075   -2.049762   -3.334892
      4          6           0       -2.681503   -1.029140   -3.389367
      5          6           0       -3.237640   -0.567276   -2.209384
      6          6           0       -2.818914   -1.113307   -0.983499
      7          7           0       -4.227586    0.437331   -2.041619
      8          6           0       -3.477048   -0.347662    0.137435
      9          6           0       -4.733295    0.162461   -0.671181
     10          6           0       -3.951447   -1.071133    1.405395
     11          6           0       -5.809845   -1.007017   -0.735256
     12          6           0       -6.295568   -1.393404    0.667821
     13          6           0       -5.432310   -0.664614    1.716386
     14          7           0       -2.963177   -0.717992    2.426005
     15          6           0       -3.363151   -0.996549    3.797775
     16          6           0       -4.786023   -0.568928    4.156899
     17          6           0       -5.800493   -1.097857    3.142777
     18          6           0       -2.421776    0.668026    0.641079
     19          6           0       -2.491431    0.631846    2.161958
     20          6           0       -5.725486    0.860650    1.509429
     21          6           0       -5.464860    1.310603    0.046039
     22          6           0       -4.826026    2.685857   -0.029235
     23          8           0       -4.262015    3.252557    0.898230
     24          8           0       -5.029850    3.244743   -1.255623
     25          6           0       -4.442014    4.535636   -1.414845
     26          6           0       -5.142513    0.647478   -3.153704
     27          6           0       -0.238185   -3.673338   -2.067118
     28          6           0        1.006867   -3.304741   -1.280415
     29          6           0        1.506578   -1.991838   -1.276557
     30          6           0        1.690648   -4.308493   -0.556399
     31          6           0        2.843359   -4.019375    0.183837
     32          6           0        3.309781   -2.718217    0.195702
     33          6           0        2.632471   -1.711584   -0.519295
     34          7           0        4.520702   -2.256024    0.823098
     35          6           0        3.248451   -0.383586   -0.151913
     36          6           0        4.679870   -0.924574    0.165732
     37          6           0        3.402861    0.747008   -1.157908
     38          6           0        5.404767   -1.345748   -1.241519
     39          6           0        5.339849   -0.237427   -2.291539
     40          6           0        4.841406    1.041579   -1.611512
     41          7           0        2.785601    1.970523   -0.502003
     42          6           0        2.539866    2.989792   -1.566324
     43          6           0        3.896378    3.406187   -2.167876
     44          6           0        4.787707    2.223320   -2.609480
     45          6           0        2.263445    0.198398    0.904409
     46          6           0        1.604885    1.386535    0.183221
     47          6           0        5.822607    1.258805   -0.412598
     48          6           0        5.671300    0.145579    0.696994
     49          6           0        5.448354    0.769675    2.070867
     50          8           0        4.711419    0.348774    2.950900
     51          8           0        6.325682    1.803981    2.260191
     52          6           0        6.154413    2.489959    3.499505
     53          6           0        4.449270   -2.388529    2.271241
     54          8           0        3.550106    2.556512    0.476716
     55          1           0       -1.565195   -2.522183    0.052070
     56          1           0       -1.283761   -2.404085   -4.265255
     57          1           0       -2.969208   -0.614845   -4.348751
     58          1           0       -3.904810   -2.160743    1.273568
     59          1           0       -6.675133   -0.702975   -1.338283
     60          1           0       -5.410467   -1.900252   -1.231812
     61          1           0       -7.353829   -1.127592    0.784222
     62          1           0       -6.237250   -2.482006    0.790663
     63          1           0       -3.285017   -2.080771    3.951199
     64          1           0       -2.651211   -0.550997    4.503172
     65          1           0       -5.038112   -0.954009    5.152062
     66          1           0       -4.844689    0.522713    4.224505
     67          1           0       -5.823582   -2.193729    3.205293
     68          1           0       -6.805438   -0.748689    3.408533
     69          1           0       -1.406154    0.354573    0.359626
     70          1           0       -2.529263    1.671946    0.232179
     71          1           0       -1.501288    0.800485    2.599069
     72          1           0       -3.155295    1.405071    2.551676
     73          1           0       -5.180798    1.471231    2.229691
     74          1           0       -6.783732    1.054541    1.736839
     75          1           0       -6.454996    1.450355   -0.414664
     76          1           0       -3.360021    4.488482   -1.255292
     77          1           0       -4.905313    5.253205   -0.730668
     78          1           0       -4.625440    4.866888   -2.440646
     79          1           0       -5.591944   -0.290233   -3.499668
     80          1           0       -4.620471    1.117079   -3.994219
     81          1           0       -5.954994    1.321583   -2.866109
     82          1           0       -0.693529   -4.577912   -1.643259
     83          1           0        0.076753   -3.930741   -3.086195
     84          1           0        0.989346   -1.200216   -1.809015
     85          1           0        1.324606   -5.333335   -0.569057
     86          1           0        3.373262   -4.804938    0.710670
     87          1           0        2.768571    0.540504   -2.033248
     88          1           0        4.989023   -2.260138   -1.683772
     89          1           0        6.454320   -1.602232   -1.037567
     90          1           0        6.327120   -0.093209   -2.747336
     91          1           0        4.665293   -0.535988   -3.104266
     92          1           0        2.034205    3.835150   -1.088074
     93          1           0        1.876818    2.540262   -2.312773
     94          1           0        4.451984    3.997851   -1.429746
     95          1           0        3.723774    4.069715   -3.023001
     96          1           0        5.799790    2.588320   -2.821771
     97          1           0        4.387923    1.859548   -3.566003
     98          1           0        1.492853   -0.495087    1.261429
     99          1           0        2.777440    0.564302    1.790004
    100          1           0        1.175666    2.132068    0.858545
    101          1           0        0.884287    1.083625   -0.582980
    102          1           0        5.741393    2.273010   -0.014426
    103          1           0        6.854475    1.213942   -0.791479
    104          1           0        6.651089   -0.343248    0.813244
    105          1           0        6.420348    1.836072    4.335703
    106          1           0        6.828286    3.351158    3.505651
    107          1           0        5.127623    2.855489    3.602428
    108          1           0        3.600381   -1.845264    2.698739
    109          1           0        5.380513   -2.038042    2.725472
    110          1           0        4.354723   -3.441996    2.559484
 ---------------------------------------------------------------------
 Rotational constants (GHZ):           0.0877187           0.0322783           0.0314169
 Standard basis: STO-3G (5D, 7F)
 There are   326 symmetry adapted cartesian basis functions of A   symmetry.
 There are   326 symmetry adapted basis functions of A   symmetry.
   326 basis functions,   978 primitive gaussians,   326 cartesian basis functions
   197 alpha electrons      197 beta electrons
       nuclear repulsion energy      8117.4228775110 Hartrees.
 NAtoms=  110 NActive=  110 NUniq=  110 SFac= 1.00D+00 NAtFMM=   60 NAOKFM=T Big=T
 Integral buffers will be    131072 words long.
 Raffenetti 1 integral format.
 Two-electron integral symmetry is turned on.
 One-electron integrals computed using PRISM.
 NBasis=   326 RedAO= T EigKep=  1.73D-01  NBF=   326
 NBsUse=   326 1.00D-06 EigRej= -1.00D+00 NBFU=   326
 ExpMin= 1.69D-01 ExpMax= 1.31D+02 ExpMxC= 1.31D+02 IAcc=3 IRadAn=         5 AccDes= 0.00D+00
 Harris functional with IExCor=  205 and IRadAn=       5 diagonalized for initial guess.
 HarFok:  IExCor=  205 AccDes= 0.00D+00 IRadAn=         5 IDoV= 1 UseB2=F ITyADJ=14
 ICtDFT=  3500011 ScaDFX=  1.000000  1.000000  1.000000  1.000000
 FoFCou: FMM=F IPFlag=           0 FMFlag=      100000 FMFlg1=        2001
         NFxFlg=           0 DoJE=T BraDBF=F KetDBF=T FulRan=T
         wScrn=  0.000000 ICntrl=       500 IOpCl=  0 I1Cent=   200000004 NGrid=           0
         NMat0=    1 NMatS0=      1 NMatT0=    0 NMatD0=    1 NMtDS0=    0 NMtDT0=    0
 Petite list used in FoFCou.
 Requested convergence on RMS density matrix=1.00D-08 within 128 cycles.
 Requested convergence on MAX density matrix=1.00D-06.
 Requested convergence on             energy=1.00D-06.
 No special actions if energy rises.
 Integral accuracy reduced to 1.0D-05 until final iterations.
 Initial convergence to 1.0D-05 achieved.  Increase integral accuracy.
 SCF Done:  E(RHF) =  -2300.19492375     A.U. after   16 cycles
            NFock= 16  Conv=0.34D-08     -V/T= 2.0092
 Range of M.O.s used for correlation:     1   326
 NBasis=   326 NAE=   197 NBE=   197 NFC=     0 NFV=     0
 NROrb=    326 NOA=   197 NOB=   197 NVA=   129 NVB=   129
          Differentiating once with respect to magnetic field using GIAOs.
          Electric field/nuclear overlap derivatives assumed to be zero.
 FoFCou: FMM=F IPFlag=           0 FMFlag=      100000 FMFlg1=        2001
         NFxFlg=           0 DoJE=F BraDBF=F KetDBF=T FulRan=T
         wScrn=  0.000000 ICntrl=      6100 IOpCl=  0 I1Cent=           7 NGrid=         110
         NMat0=    1 NMatS0=      1 NMatT0=    0 NMatD0=    1 NMtDS0=    0 NMtDT0=    0
 Symmetry not used in FoFCou.
 FoFJK:  IHMeth= 1 ICntrl=    6127 DoSepK=F KAlg= 0 I1Cent=           0 FoldK=F
 IRaf=         1 NMat=       1 IRICut=       1 DoRegI=T DoRafI=F ISym2E= 0 IDoP0=0 IntGTp=1.
          There are     3 degrees of freedom in the 1st order CPHF.  IDoFFX=0 NUNeed=     3.
      3 vectors produced by pass  0 Test12= 8.47D-13 3.33D-08 XBig12= 1.73D+02 1.86D+00.
 AX will form     3 AO Fock derivatives at one time.
      3 vectors produced by pass  1 Test12= 8.47D-13 3.33D-08 XBig12= 6.20D-01 2.42D-01.
      3 vectors produced by pass  2 Test12= 8.47D-13 3.33D-08 XBig12= 1.82D-02 3.82D-02.
      3 vectors produced by pass  3 Test12= 8.47D-13 3.33D-08 XBig12= 5.47D-04 7.69D-03.
      3 vectors produced by pass  4 Test12= 8.47D-13 3.33D-08 XBig12= 2.04D-05 8.12D-04.
      3 vectors produced by pass  5 Test12= 8.47D-13 3.33D-08 XBig12= 3.63D-07 1.03D-04.
      3 vectors produced by pass  6 Test12= 8.47D-13 3.33D-08 XBig12= 1.40D-08 2.73D-05.
      3 vectors produced by pass  7 Test12= 8.47D-13 3.33D-08 XBig12= 3.71D-10 2.78D-06.
      3 vectors produced by pass  8 Test12= 8.47D-13 3.33D-08 XBig12= 5.85D-12 3.21D-07.
      3 vectors produced by pass  9 Test12= 8.47D-13 3.33D-08 XBig12= 9.60D-14 4.92D-08.
 InvSVY:  IOpt=1 It=  1 EMax= 3.55D-15
 Solved reduced A of dimension    30 with     3 vectors.
 Calculating GIAO nuclear magnetic shielding tensors.
 SCF GIAO Magnetic shielding tensor (ppm):
      1  C    Isotropic =   123.6710   Anisotropy =   156.0454
   XX=   168.7229   YX=    67.4945   ZX=   -18.7720
   XY=    61.6404   YY=   156.7140   ZY=    22.2887
   XZ=   -18.3610   YZ=    32.9341   ZZ=    45.5762
   Eigenvalues:    29.5905   113.7213   227.7013
      2  C    Isotropic =   118.3527   Anisotropy =   163.3517
   XX=   130.0958   YX=    97.1065   ZX=     8.8602
   XY=    90.3464   YY=   135.2903   ZY=     5.0595
   XZ=     5.8793   YZ=     9.8444   ZZ=    89.6720
   Eigenvalues:    38.9305    88.8738   227.2538
      3  C    Isotropic =   118.7054   Anisotropy =   152.0324
   XX=   151.2305   YX=    69.0031   ZX=    40.3968
   XY=    63.5261   YY=   153.1447   ZY=   -12.3542
   XZ=    36.7914   YZ=   -19.1670   ZZ=    51.7411
   Eigenvalues:    25.7389   110.3170   220.0604
      4  C    Isotropic =   133.8098   Anisotropy =   143.8953
   XX=   176.0723   YX=    59.8883   ZX=   -13.2276
   XY=    61.5165   YY=   159.3994   ZY=    30.1062
   XZ=    -6.3935   YZ=    25.0949   ZZ=    65.9577
   Eigenvalues:    51.7377   119.9517   229.7400
      5  C    Isotropic =   108.9026   Anisotropy =   128.7867
   XX=   125.4040   YX=    72.8306   ZX=    -2.5492
   XY=    79.3409   YY=   111.2523   ZY=    -2.4013
   XZ=    -3.1530   YZ=    12.7482   ZZ=    90.0514
   Eigenvalues:    41.2380    90.7094   194.7604
      6  C    Isotropic =   117.0015   Anisotropy =   143.1666
   XX=   159.8295   YX=    60.9043   ZX=    20.2414
   XY=    64.9932   YY=   134.4079   ZY=     1.8355
   XZ=    18.9905   YZ=    -8.5368   ZZ=    56.7671
   Eigenvalues:    49.0545    89.5042   212.4459
      7  N    Isotropic =   273.9625   Anisotropy =    82.1859
   XX=   302.0805   YX=   -26.3986   ZX=   -16.4360
   XY=   -35.5311   YY=   266.5494   ZY=     3.4314
   XZ=   -32.5917   YZ=    14.2346   ZZ=   253.2577
   Eigenvalues:   241.7303   251.4041   328.7531
      8  C    Isotropic =   196.0077   Anisotropy =    11.5699
   XX=   191.0989   YX=     1.4959   ZX=     6.2818
   XY=     2.2670   YY=   196.0391   ZY=    -0.2337
   XZ=     2.4539   YZ=    -7.3301   ZZ=   200.8850
   Eigenvalues:   188.1207   196.1813   203.7209
      9  C    Isotropic =   181.0657   Anisotropy =    44.8137
   XX=   172.1384   YX=   -18.6507   ZX=   -10.5577
   XY=    -3.2393   YY=   164.3059   ZY=   -16.0221
   XZ=    -7.0118   YZ=    -8.5096   ZZ=   206.7528
   Eigenvalues:   152.4092   179.8464   210.9415
     10  C    Isotropic =   190.6243   Anisotropy =    28.8922
   XX=   192.5909   YX=     9.8378   ZX=    10.1840
   XY=     6.3179   YY=   176.2992   ZY=     2.1148
   XZ=     7.7997   YZ=     5.7855   ZZ=   202.9829
   Eigenvalues:   172.9710   189.0162   209.8858
     11  C    Isotropic =   213.7622   Anisotropy =    20.0544
   XX=   215.6831   YX=    11.1010   ZX=    -0.2788
   XY=    12.3153   YY=   215.1298   ZY=     3.2820
   XZ=    -0.5619   YZ=    -3.8028   ZZ=   210.4737
   Eigenvalues:   203.6933   210.4614   227.1318
     12  C    Isotropic =   212.9252   Anisotropy =    20.9496
   XX=   209.9154   YX=     6.1736   ZX=     6.6569
   XY=     6.4984   YY=   209.2166   ZY=     4.2462
   XZ=     8.0384   YZ=     6.0526   ZZ=   219.6435
   Eigenvalues:   203.0562   208.8277   226.8916
     13  C    Isotropic =   213.7317   Anisotropy =     9.0300
   XX=   212.2026   YX=     0.5539   ZX=    -4.2916
   XY=     4.4354   YY=   216.2828   ZY=    -1.5229
   XZ=    -3.7746   YZ=    -3.0016   ZZ=   212.7098
   Eigenvalues:   208.4039   213.0396   219.7517
     14  N    Isotropic =   303.3043   Anisotropy =    53.5812
   XX=   278.6920   YX=    35.9381   ZX=    29.1334
   XY=    45.4872   YY=   302.9997   ZY=   -16.9141
   XZ=    16.1918   YZ=    -4.8178   ZZ=   328.2212
   Eigenvalues:   241.3354   329.5524   339.0251
     15  C    Isotropic =   205.4545   Anisotropy =    35.2453
   XX=   200.9702   YX=    -1.8376   ZX=    -6.6566
   XY=    -2.1396   YY=   191.1281   ZY=    -8.6841
   XZ=    -7.7755   YZ=   -12.9770   ZZ=   224.2654
   Eigenvalues:   186.7167   200.6955   228.9514
     16  C    Isotropic =   224.3208   Anisotropy =     8.4875
   XX=   227.7391   YX=    -0.7489   ZX=     2.9375
   XY=     0.1960   YY=   218.3822   ZY=    -3.3625
   XZ=     2.2821   YZ=     1.8861   ZZ=   226.8412
   Eigenvalues:   218.3179   224.6654   229.9792
     17  C    Isotropic =   215.3758   Anisotropy =    19.9718
   XX=   209.1088   YX=     2.9427   ZX=    -2.4242
   XY=     0.2447   YY=   209.6309   ZY=    -3.5819
   XZ=     1.1620   YZ=    -6.1689   ZZ=   227.3877
   Eigenvalues:   207.2927   210.1444   228.6903
     18  C    Isotropic =   210.5793   Anisotropy =    36.4194
   XX=   212.2895   YX=    16.2122   ZX=     6.2991
   XY=    16.4399   YY=   201.7349   ZY=    18.2415
   XZ=     4.8195   YZ=    10.3901   ZZ=   217.7134
   Eigenvalues:   187.2018   209.6772   234.8589
     19  C    Isotropic =   200.1259   Anisotropy =    41.7657
   XX=   187.3126   YX=    17.9601   ZX=    -2.7543
   XY=    23.9446   YY=   211.3597   ZY=    -9.5839
   XZ=    -2.2526   YZ=   -12.4743   ZZ=   201.7056
   Eigenvalues:   174.7198   197.6883   227.9697
     20  C    Isotropic =   212.2734   Anisotropy =    20.9048
   XX=   204.4165   YX=    -2.2985   ZX=    -7.2077
   XY=    -2.7140   YY=   221.5944   ZY=    -8.1049
   XZ=    -5.4196   YZ=    -8.6741   ZZ=   210.8091
   Eigenvalues:   198.5055   212.1047   226.2099
     21  C    Isotropic =   209.1521   Anisotropy =     9.6336
   XX=   208.5783   YX=     0.5793   ZX=    -7.2410
   XY=     1.0102   YY=   215.4065   ZY=    -2.8235
   XZ=    -5.3042   YZ=     5.6678   ZZ=   203.4716
   Eigenvalues:   199.0910   212.7909   215.5745
     22  C    Isotropic =    96.5441   Anisotropy =    98.6503
   XX=   152.2599   YX=   -17.9574   ZX=     9.4823
   XY=   -25.1343   YY=    44.4229   ZY=    80.5717
   XZ=    20.2739   YZ=    99.7348   ZZ=    92.9494
   Eigenvalues:   -28.4595   155.7808   162.3110
     23  O    Isotropic =  -135.2198   Anisotropy =   890.0878
   XX=   226.8067   YX=  -290.0551   ZX=  -293.7187
   XY=  -307.3030   YY=  -223.1481   ZY=    -9.8650
   XZ=  -298.6845   YZ=     5.1248   ZZ=  -409.3179
   Eigenvalues:  -572.7236  -291.1078   458.1721
     24  O    Isotropic =   283.7306   Anisotropy =   140.1536
   XX=   305.9654   YX=  -112.0249   ZX=    11.2624
   XY=   -82.9977   YY=   181.7952   ZY=    16.9810
   XZ=   -50.9044   YZ=  -116.3521   ZZ=   363.4311
   Eigenvalues:   116.8420   357.1834   377.1663
     25  C    Isotropic =   197.3993   Anisotropy =    56.8863
   XX=   186.7975   YX=    18.3727   ZX=    -3.3484
   XY=    18.1505   YY=   226.3665   ZY=    -9.3418
   XZ=    -4.0387   YZ=    -9.4895   ZZ=   179.0339
   Eigenvalues:   177.2165   179.6578   235.3235
     26  C    Isotropic =   209.8774   Anisotropy =    41.7122
   XX=   208.8874   YX=    -3.8445   ZX=    20.6974
   XY=    -5.2802   YY=   200.5018   ZY=    -5.0522
   XZ=    20.8555   YZ=    -7.2803   ZZ=   220.2430
   Eigenvalues:   193.0247   198.9219   237.6855
     27  C    Isotropic =   206.1852   Anisotropy =    20.8830
   XX=   212.1826   YX=    -7.7590   ZX=     7.0377
   XY=    -8.0144   YY=   207.0813   ZY=     3.7508
   XZ=    12.0159   YZ=     1.2879   ZZ=   199.2917
   Eigenvalues:   191.7351   206.7133   220.1072
     28  C    Isotropic =   115.6566   Anisotropy =   164.7421
   XX=    93.2125   YX=   -29.9264   ZX=   -83.9532
   XY=   -25.3322   YY=    88.1703   ZY=    19.7715
   XZ=   -80.4334   YZ=    14.0270   ZZ=   165.5869
   Eigenvalues:    35.5595    85.9256   225.4846
     29  C    Isotropic =   127.9922   Anisotropy =   151.8398
   XX=   142.2729   YX=    20.1802   ZX=   -70.1839
   XY=    17.7784   YY=    74.4319   ZY=    48.5936
   XZ=   -71.6130   YZ=    32.2694   ZZ=   167.2719
   Eigenvalues:    36.8306   117.9274   229.2188
     30  C    Isotropic =   119.3121   Anisotropy =   151.7680
   XX=   136.5875   YX=   -38.8453   ZX=   -51.0653
   XY=   -41.8579   YY=    43.7023   ZY=    13.1302
   XZ=   -52.5489   YZ=    19.7050   ZZ=   177.6466
   Eigenvalues:    28.5604   108.8852   220.4908
     31  C    Isotropic =   127.9595   Anisotropy =   152.7727
   XX=   125.2185   YX=    15.3502   ZX=   -75.2333
   XY=    10.3069   YY=    83.2999   ZY=    43.1805
   XZ=   -63.3313   YZ=    44.2349   ZZ=   175.3601
   Eigenvalues:    42.1132   111.9574   229.8080
     32  C    Isotropic =   106.8714   Anisotropy =   126.1024
   XX=    83.9448   YX=   -14.4991   ZX=   -67.6593
   XY=   -12.0068   YY=    92.1467   ZY=    16.0581
   XZ=   -69.7034   YZ=    -2.9849   ZZ=   144.5228
   Eigenvalues:    38.0992    91.5754   190.9397
     33  C    Isotropic =   113.8690   Anisotropy =   147.0081
   XX=   133.0451   YX=   -22.2697   ZX=   -60.1207
   XY=   -30.2997   YY=    49.3684   ZY=     9.6540
   XZ=   -60.5706   YZ=    13.2534   ZZ=   159.1936
   Eigenvalues:    41.3916    88.3410   211.8744
     34  N    Isotropic =   275.9365   Anisotropy =    76.9586
   XX=   279.3947   YX=    40.2057   ZX=    -0.3592
   XY=    37.0253   YY=   285.2462   ZY=    38.4388
   XZ=    10.5079   YZ=     5.8365   ZZ=   263.1685
   Eigenvalues:   237.4930   263.0742   327.2422
     35  C    Isotropic =   199.7854   Anisotropy =    13.2904
   XX=   195.9721   YX=    -6.4293   ZX=     9.4243
   XY=    -4.3648   YY=   200.8700   ZY=    -7.1305
   XZ=     3.5220   YZ=     4.7762   ZZ=   202.5143
   Eigenvalues:   190.3433   200.3673   208.6457
     36  C    Isotropic =   180.0966   Anisotropy =    35.7705
   XX=   178.0190   YX=     5.4506   ZX=    13.4135
   XY=    -0.2118   YY=   188.3679   ZY=   -16.6774
   XZ=     1.6551   YZ=   -26.1454   ZZ=   173.9029
   Eigenvalues:   155.8803   180.4659   203.9436
     37  C    Isotropic =   183.6118   Anisotropy =    42.4471
   XX=   175.6302   YX=   -14.8609   ZX=   -14.1166
   XY=   -16.7620   YY=   196.4829   ZY=     8.1894
   XZ=   -21.5915   YZ=     5.1127   ZZ=   178.7222
   Eigenvalues:   157.6704   181.2551   211.9099
     38  C    Isotropic =   206.6804   Anisotropy =    32.7755
   XX=   201.3862   YX=    -0.0483   ZX=   -14.4754
   XY=    -3.7584   YY=   200.3030   ZY=     1.6505
   XZ=   -17.6658   YZ=     4.7361   ZZ=   218.3519
   Eigenvalues:   191.6969   199.8134   228.5307
     39  C    Isotropic =   213.0775   Anisotropy =    19.0670
   XX=   206.0637   YX=    -6.8388   ZX=    -0.2998
   XY=    -3.8442   YY=   222.7987   ZY=     6.4406
   XZ=    -2.1360   YZ=     2.6332   ZZ=   210.3700
   Eigenvalues:   204.5019   208.9417   225.7888
     40  C    Isotropic =   211.8539   Anisotropy =    11.5780
   XX=   209.0894   YX=     3.6610   ZX=    -1.8183
   XY=     3.9350   YY=   213.4997   ZY=    -5.4303
   XZ=    -2.5016   YZ=    -3.7580   ZZ=   212.9726
   Eigenvalues:   206.8481   209.1410   219.5725
     41  N    Isotropic =   235.5401   Anisotropy =    24.7317
   XX=   246.2998   YX=     7.9878   ZX=     7.7576
   XY=    -7.0995   YY=   236.5132   ZY=     3.5028
   XZ=    10.7930   YZ=    23.6499   ZZ=   223.8072
   Eigenvalues:   213.3732   241.2192   252.0279
     42  C    Isotropic =   194.0335   Anisotropy =    49.6125
   XX=   183.1583   YX=    -4.7110   ZX=     2.6399
   XY=    -6.8519   YY=   199.0452   ZY=   -28.7057
   XZ=     5.9501   YZ=   -24.2564   ZZ=   199.8971
   Eigenvalues:   172.8553   182.1368   227.1085
     43  C    Isotropic =   219.5774   Anisotropy =    11.4164
   XX=   222.1548   YX=    -1.6276   ZX=    -7.2399
   XY=    -1.3818   YY=   223.5987   ZY=    -2.6687
   XZ=    -9.2607   YZ=    -5.2010   ZZ=   212.9789
   Eigenvalues:   207.0802   224.4638   227.1884
     44  C    Isotropic =   214.8604   Anisotropy =    22.0593
   XX=   205.7131   YX=    -1.9817   ZX=    -3.4896
   XY=    -4.0887   YY=   223.2178   ZY=    -9.8570
   XZ=    -0.6972   YZ=    -8.7734   ZZ=   215.6501
   Eigenvalues:   203.6040   211.4105   229.5665
     45  C    Isotropic =   207.5467   Anisotropy =    35.8377
   XX=   207.1600   YX=   -16.8913   ZX=   -16.3679
   XY=   -12.2347   YY=   214.7695   ZY=     0.3783
   XZ=   -22.0652   YZ=    -1.2402   ZZ=   200.7106
   Eigenvalues:   181.3546   209.8469   231.4385
     46  C    Isotropic =   191.2513   Anisotropy =    56.0681
   XX=   208.0356   YX=     5.5134   ZX=   -25.4654
   XY=    16.5461   YY=   189.9687   ZY=   -11.4884
   XZ=   -24.4281   YZ=   -16.2791   ZZ=   175.7495
   Eigenvalues:   160.2856   184.8382   228.6300
     47  C    Isotropic =   210.9422   Anisotropy =    25.3185
   XX=   204.6732   YX=     5.9502   ZX=     8.8143
   XY=     6.2676   YY=   203.9208   ZY=    -5.7106
   XZ=     7.8878   YZ=    -5.8626   ZZ=   224.2325
   Eigenvalues:   194.7901   210.2152   227.8212
     48  C    Isotropic =   205.7137   Anisotropy =    15.0645
   XX=   202.2795   YX=     2.6143   ZX=     1.3111
   XY=     4.4684   YY=   206.3160   ZY=     6.9166
   XZ=     5.2509   YZ=     6.1334   ZZ=   208.5455
   Eigenvalues:   200.1233   201.2611   215.7567
     49  C    Isotropic =    97.1529   Anisotropy =    95.4262
   XX=   135.3310   YX=   -48.9305   ZX=   -43.7486
   XY=   -38.5097   YY=    63.8459   ZY=   -89.9255
   XZ=   -26.7962   YZ=   -72.6235   ZZ=    92.2818
   Eigenvalues:   -24.2163   154.9046   160.7704
     50  O    Isotropic =  -118.2553   Anisotropy =   854.2328
   XX=   -17.5076   YX=  -389.0732   ZX=   282.9446
   XY=  -381.3836   YY=   -31.0994   ZY=   -84.9412
   XZ=   283.8380   YZ=   -72.5770   ZZ=  -306.1587
   Eigenvalues:  -537.9204  -268.0786   451.2333
     51  O    Isotropic =   286.6502   Anisotropy =   143.8814
   XX=   351.3660   YX=    54.1761   ZX=    99.1511
   XY=     1.4002   YY=   355.5695   ZY=    13.4390
   XZ=    30.2017   YZ=   -99.2679   ZZ=   153.0152
   Eigenvalues:   123.3884   353.9911   382.5712
     52  C    Isotropic =   197.5894   Anisotropy =    56.4939
   XX=   180.1922   YX=    -1.0651   ZX=    -1.2135
   XY=    -1.8009   YY=   193.0337   ZY=    25.7883
   XZ=    -0.8699   YZ=    25.6094   ZZ=   219.5422
   Eigenvalues:   177.2140   180.3020   235.2520
     53  C    Isotropic =   207.5045   Anisotropy =    41.7091
   XX=   191.0775   YX=    -1.1692   ZX=     0.7723
   XY=     0.3363   YY=   196.7040   ZY=    -2.9984
   XZ=     5.5166   YZ=    -4.3472   ZZ=   234.7319
   Eigenvalues:   190.8480   196.3549   235.3105
     54  O    Isotropic =    77.5714   Anisotropy =   401.4534
   XX=    47.3684   YX=   103.3161   ZX=   148.9757
   XY=    83.7906   YY=    23.7081   ZY=   132.9855
   XZ=   132.5703   YZ=   148.3729   ZZ=   161.6376
   Eigenvalues:   -65.1118   -47.3811   345.2070
     55  H    Isotropic =    26.2291   Anisotropy =    15.2719
   XX=    29.9770   YX=    -5.8941   ZX=    -3.3628
   XY=    -6.3661   YY=    25.2319   ZY=     2.2131
   XZ=    -6.1057   YZ=     2.9673   ZZ=    23.4784
   Eigenvalues:    20.6283    21.6486    36.4104
     56  H    Isotropic =    25.7114   Anisotropy =     5.6275
   XX=    24.8309   YX=    -3.2164   ZX=     1.7525
   XY=    -3.3189   YY=    24.5291   ZY=    -0.2463
   XZ=     1.8340   YZ=    -0.4578   ZZ=    27.7744
   Eigenvalues:    21.2520    26.4192    29.4631
     57  H    Isotropic =    26.5362   Anisotropy =     7.4867
   XX=    26.0330   YX=    -4.2541   ZX=    -1.8656
   XY=    -4.5456   YY=    23.9984   ZY=     1.1576
   XZ=    -1.6309   YZ=     0.7681   ZZ=    29.5773
   Eigenvalues:    20.4869    27.5945    31.5273
     58  H    Isotropic =    31.6874   Anisotropy =     8.6455
   XX=    29.2693   YX=    -1.5794   ZX=    -1.5675
   XY=    -2.3925   YY=    36.8189   ZY=    -0.4445
   XZ=    -1.0267   YZ=     2.0439   ZZ=    28.9741
   Eigenvalues:    27.7465    29.8647    37.4511
     59  H    Isotropic =    32.1914   Anisotropy =    13.6960
   XX=    36.9807   YX=     0.8622   ZX=     5.6987
   XY=     2.6356   YY=    25.5093   ZY=    -2.2303
   XZ=     5.5100   YZ=    -1.8515   ZZ=    34.0842
   Eigenvalues:    24.2069    31.0453    41.3221
     60  H    Isotropic =    32.9454   Anisotropy =     8.8140
   XX=    31.5647   YX=    -0.0411   ZX=    -3.0061
   XY=     3.2633   YY=    35.2352   ZY=     4.5714
   XZ=    -1.6356   YZ=     5.2930   ZZ=    32.0364
   Eigenvalues:    26.7823    33.2324    38.8214
     61  H    Isotropic =    32.3935   Anisotropy =    15.4858
   XX=    42.4700   YX=     1.8790   ZX=    -0.7128
   XY=     1.9252   YY=    25.8630   ZY=    -0.3813
   XZ=    -0.5546   YZ=    -0.3194   ZZ=    28.8474
   Eigenvalues:    25.6240    28.8391    42.7174
     62  H    Isotropic =    32.6341   Anisotropy =    13.8198
   XX=    28.6507   YX=     4.3732   ZX=    -0.6856
   XY=     5.0881   YY=    40.0667   ZY=    -1.2898
   XZ=    -0.1671   YZ=    -0.4760   ZZ=    29.1850
   Eigenvalues:    26.9404    29.1146    41.8473
     63  H    Isotropic =    31.9894   Anisotropy =    14.2411
   XX=    28.3370   YX=    -3.2238   ZX=    -0.0337
   XY=    -3.9145   YY=    36.5035   ZY=    -5.9663
   XZ=     0.4350   YZ=    -6.8127   ZZ=    31.1279
   Eigenvalues:    25.4448    29.0400    41.4835
     64  H    Isotropic =    31.9616   Anisotropy =    14.4345
   XX=    33.6491   YX=     1.9391   ZX=     5.2150
   XY=     2.1575   YY=    24.8531   ZY=     0.9101
   XZ=     5.9157   YZ=     0.6178   ZZ=    37.3827
   Eigenvalues:    24.3781    29.9222    41.5846
     65  H    Isotropic =    32.7210   Anisotropy =    18.1631
   XX=    29.0340   YX=     1.0336   ZX=    -3.6449
   XY=     1.1491   YY=    26.0157   ZY=    -3.9989
   XZ=    -3.7978   YZ=    -3.4197   ZZ=    43.1135
   Eigenvalues:    25.2134    28.1200    44.8298
     66  H    Isotropic =    32.6343   Anisotropy =    10.4108
   XX=    27.8701   YX=    -1.2856   ZX=    -1.2217
   XY=    -1.3317   YY=    36.9322   ZY=     3.9612
   XZ=    -1.1248   YZ=     3.7434   ZZ=    33.1006
   Eigenvalues:    27.5846    30.7435    39.5748
     67  H    Isotropic =    32.7250   Anisotropy =    13.4974
   XX=    28.5750   YX=     4.4596   ZX=    -1.1500
   XY=     4.5626   YY=    38.3498   ZY=    -4.0402
   XZ=    -1.0860   YZ=    -3.8983   ZZ=    31.2500
   Eigenvalues:    26.7608    29.6908    41.7232
     68  H    Isotropic =    32.5421   Anisotropy =    15.1053
   XX=    39.7986   YX=    -0.8650   ZX=    -5.4290
   XY=    -1.4390   YY=    25.6007   ZY=    -0.4302
   XZ=    -5.2930   YZ=    -0.5966   ZZ=    32.2269
   Eigenvalues:    25.3291    29.6849    42.6123
     69  H    Isotropic =    32.9049   Anisotropy =    18.6245
   XX=    44.6240   YX=     0.6295   ZX=    -1.3813
   XY=     0.1695   YY=    25.6218   ZY=     4.0669
   XZ=    -5.4472   YZ=     3.0780   ZZ=    28.4689
   Eigenvalues:    22.9572    30.4363    45.3212
     70  H    Isotropic =    33.1232   Anisotropy =     8.7975
   XX=    33.2685   YX=     0.6956   ZX=     2.0517
   XY=     0.7374   YY=    37.8709   ZY=    -3.5000
   XZ=    -0.0693   YZ=    -3.3447   ZZ=    28.2303
   Eigenvalues:    26.9256    33.4559    38.9882
     71  H    Isotropic =    32.1412   Anisotropy =    15.2831
   XX=    39.2294   YX=     4.0021   ZX=     4.3322
   XY=     5.6940   YY=    26.2448   ZY=     2.1686
   XZ=     2.9625   YZ=     1.9554   ZZ=    30.9492
   Eigenvalues:    24.5138    29.5798    42.3299
     72  H    Isotropic =    32.0583   Anisotropy =     8.5247
   XX=    30.4547   YX=    -1.1376   ZX=    -0.3289
   XY=    -1.2110   YY=    35.1726   ZY=     4.0669
   XZ=    -1.6271   YZ=     3.8169   ZZ=    30.5477
   Eigenvalues:    28.2540    30.1795    37.7414
     73  H    Isotropic =    31.4649   Anisotropy =     9.0145
   XX=    27.7196   YX=     1.1372   ZX=     1.8483
   XY=     0.6014   YY=    33.3667   ZY=     4.3360
   XZ=     2.0130   YZ=     3.1305   ZZ=    33.3086
   Eigenvalues:    27.0983    29.8219    37.4746
     74  H    Isotropic =    32.2664   Anisotropy =    15.1010
   XX=    38.4587   YX=    -5.0350   ZX=    -5.0142
   XY=    -5.6747   YY=    28.5662   ZY=    -0.0515
   XZ=    -4.6909   YZ=    -0.5101   ZZ=    29.7744
   Eigenvalues:    24.9066    29.5589    42.3337
     75  H    Isotropic =    31.2179   Anisotropy =    12.5858
   XX=    35.8473   YX=    -3.6623   ZX=     4.4363
   XY=    -4.2113   YY=    28.5347   ZY=    -3.0387
   XZ=     2.7456   YZ=    -3.3052   ZZ=    29.2717
   Eigenvalues:    25.6576    28.3876    39.6084
     76  H    Isotropic =    30.6915   Anisotropy =     8.1080
   XX=    35.2874   YX=     2.4087   ZX=    -0.2258
   XY=     1.6022   YY=    30.9722   ZY=    -1.5462
   XZ=     0.4339   YZ=    -1.5014   ZZ=    25.8149
   Eigenvalues:    25.3559    30.6218    36.0968
     77  H    Isotropic =    30.5921   Anisotropy =    11.6109
   XX=    27.0208   YX=    -2.9538   ZX=    -1.1086
   XY=    -3.1736   YY=    36.6368   ZY=     2.1942
   XZ=    -1.7646   YZ=     2.9227   ZZ=    28.1186
   Eigenvalues:    25.8478    27.5957    38.3326
     78  H    Isotropic =    30.5689   Anisotropy =    11.7720
   XX=    25.9041   YX=    -0.2259   ZX=     0.8468
   XY=    -0.7530   YY=    31.8064   ZY=    -5.6759
   XZ=     1.1475   YZ=    -4.9446   ZZ=    33.9963
   Eigenvalues:    25.7740    27.5158    38.4169
     79  H    Isotropic =    31.8772   Anisotropy =    12.1493
   XX=    31.2080   YX=     2.0834   ZX=     5.1827
   XY=     4.0573   YY=    30.0592   ZY=     3.4942
   XZ=     4.7597   YZ=     2.9654   ZZ=    34.3644
   Eigenvalues:    27.2445    28.4103    39.9767
     80  H    Isotropic =    30.7383   Anisotropy =    13.9160
   XX=    26.7701   YX=    -1.1003   ZX=    -1.5651
   XY=    -0.4074   YY=    27.7655   ZY=    -5.0630
   XZ=    -1.6755   YZ=    -5.3393   ZZ=    37.6792
   Eigenvalues:    24.6594    27.5398    40.0156
     81  H    Isotropic =    30.8868   Anisotropy =    10.7306
   XX=    31.8018   YX=    -6.8297   ZX=     2.4222
   XY=    -5.7950   YY=    29.7424   ZY=    -0.4428
   XZ=     2.6732   YZ=    -1.1088   ZZ=    31.1164
   Eigenvalues:    24.2025    30.4175    38.0406
     82  H    Isotropic =    29.9214   Anisotropy =    11.1782
   XX=    28.4668   YX=     3.3741   ZX=     0.6114
   XY=    -0.3111   YY=    36.5276   ZY=    -2.9774
   XZ=    -0.1684   YZ=    -2.5168   ZZ=    24.7696
   Eigenvalues:    24.0882    28.3024    37.3735
     83  H    Isotropic =    30.1709   Anisotropy =    11.4401
   XX=    26.7255   YX=    -3.1486   ZX=    -1.4245
   XY=    -2.3466   YY=    27.8951   ZY=     4.2844
   XZ=     1.8430   YZ=     4.1943   ZZ=    35.8920
   Eigenvalues:    23.7440    28.9710    37.7976
     84  H    Isotropic =    27.4307   Anisotropy =    16.4660
   XX=    33.9093   YX=     4.4512   ZX=     4.0038
   XY=     7.4379   YY=    26.1949   ZY=     2.4741
   XZ=     3.9437   YZ=     1.9092   ZZ=    22.1877
   Eigenvalues:    20.9177    22.9662    38.4080
     85  H    Isotropic =    25.5908   Anisotropy =     6.1201
   XX=    26.1488   YX=    -1.0442   ZX=     3.6390
   XY=    -1.0036   YY=    27.3922   ZY=    -1.1939
   XZ=     3.6917   YZ=    -1.2359   ZZ=    23.2315
   Eigenvalues:    20.7162    26.3855    29.6709
     86  H    Isotropic =    25.8920   Anisotropy =     7.6227
   XX=    24.7072   YX=     2.1678   ZX=     2.9430
   XY=     1.4013   YY=    30.4433   ZY=    -0.5519
   XZ=     3.0371   YZ=    -0.3596   ZZ=    22.5256
   Eigenvalues:    20.2383    26.4640    30.9738
     87  H    Isotropic =    32.1312   Anisotropy =     7.1650
   XX=    33.4186   YX=     2.4352   ZX=     3.4282
   XY=     2.4466   YY=    30.7077   ZY=     0.7104
   XZ=     3.6035   YZ=    -1.1875   ZZ=    32.2672
   Eigenvalues:    27.9780    31.5078    36.9079
     88  H    Isotropic =    32.6292   Anisotropy =     9.1441
   XX=    30.0660   YX=     2.7390   ZX=    -1.7259
   XY=     0.8293   YY=    36.7814   ZY=     4.2916
   XZ=    -5.5192   YZ=     3.4381   ZZ=    31.0402
   Eigenvalues:    25.5143    33.6481    38.7252
     89  H    Isotropic =    31.5485   Anisotropy =    14.9149
   XX=    38.3471   YX=    -5.8317   ZX=    -1.1828
   XY=    -6.0659   YY=    29.2139   ZY=    -0.1582
   XZ=    -3.1357   YZ=    -0.7332   ZZ=    27.0845
   Eigenvalues:    25.1996    27.9541    41.4918
     90  H    Isotropic =    32.2463   Anisotropy =    16.3588
   XX=    36.7254   YX=    -0.7692   ZX=    -8.0424
   XY=    -1.1375   YY=    27.7603   ZY=    -0.4726
   XZ=    -8.6752   YZ=    -0.7158   ZZ=    32.2531
   Eigenvalues:    25.3716    28.2150    43.1522
     91  H    Isotropic =    33.0660   Anisotropy =    11.6782
   XX=    29.9242   YX=     2.0181   ZX=     2.5964
   XY=     1.0001   YY=    30.2085   ZY=     4.3124
   XZ=     1.6358   YZ=     2.6823   ZZ=    39.0654
   Eigenvalues:    28.4376    29.9091    40.8515
     92  H    Isotropic =    31.1382   Anisotropy =    13.0080
   XX=    31.0925   YX=    -5.5229   ZX=    -2.5037
   XY=    -4.9939   YY=    36.5025   ZY=     0.4925
   XZ=    -2.5703   YZ=    -0.8687   ZZ=    25.8197
   Eigenvalues:    24.3019    29.3027    39.8102
     93  H    Isotropic =    32.3740   Anisotropy =    10.7746
   XX=    35.5948   YX=     1.1026   ZX=     5.1317
   XY=     0.7809   YY=    29.3279   ZY=    -3.2174
   XZ=     5.4949   YZ=    -2.3613   ZZ=    32.1992
   Eigenvalues:    25.9466    31.6183    39.5571
     94  H    Isotropic =    31.2499   Anisotropy =    12.8773
   XX=    29.6843   YX=     4.7441   ZX=     2.5604
   XY=     5.0950   YY=    35.9631   ZY=     3.1012
   XZ=     2.0116   YZ=     2.8523   ZZ=    28.1024
   Eigenvalues:    26.4097    27.5053    39.8347
     95  H    Isotropic =    32.4406   Anisotropy =    17.3085
   XX=    27.9499   YX=    -1.4567   ZX=    -0.0309
   XY=    -0.9739   YY=    35.8211   ZY=    -8.9591
   XZ=    -0.6346   YZ=    -9.4289   ZZ=    33.5507
   Eigenvalues:    25.0371    28.3050    43.9796
     96  H    Isotropic =    32.1767   Anisotropy =    15.6733
   XX=    37.1464   YX=     4.0068   ZX=    -5.2430
   XY=     4.2061   YY=    30.4691   ZY=    -4.5741
   XZ=    -5.6121   YZ=    -4.6877   ZZ=    28.9146
   Eigenvalues:    24.7139    29.1907    42.6256
     97  H    Isotropic =    32.7785   Anisotropy =    12.3521
   XX=    27.3211   YX=    -0.4318   ZX=     1.4548
   XY=    -0.6109   YY=    30.1060   ZY=     0.1604
   XZ=     0.9261   YZ=    -0.3130   ZZ=    40.9084
   Eigenvalues:    27.1292    30.1930    41.0133
     98  H    Isotropic =    33.0115   Anisotropy =    11.6975
   XX=    37.3010   YX=     1.4414   ZX=    -5.3358
   XY=     3.4073   YY=    31.5314   ZY=    -2.2948
   XZ=    -5.1021   YZ=     0.2049   ZZ=    30.2020
   Eigenvalues:    27.4274    30.7972    40.8098
     99  H    Isotropic =    31.3354   Anisotropy =    10.8951
   XX=    31.2499   YX=    -0.0845   ZX=     3.1781
   XY=    -1.0297   YY=    26.0549   ZY=     1.9266
   XZ=     3.3062   YZ=     3.3985   ZZ=    36.7012
   Eigenvalues:    25.1182    30.2891    38.5988
    100  H    Isotropic =    31.3547   Anisotropy =    13.5504
   XX=    35.0693   YX=    -4.2179   ZX=    -5.7689
   XY=    -2.7437   YY=    30.5971   ZY=     2.9995
   XZ=    -4.7958   YZ=     4.3239   ZZ=    28.3977
   Eigenvalues:    24.8933    28.7825    40.3882
    101  H    Isotropic =    32.3404   Anisotropy =    16.8230
   XX=    42.4698   YX=     2.3272   ZX=     3.5287
   XY=     3.8537   YY=    28.4302   ZY=     0.2587
   XZ=     1.9752   YZ=     0.3542   ZZ=    26.1213
   Eigenvalues:    25.6529    27.8125    43.5557
    102  H    Isotropic =    30.2550   Anisotropy =    10.4496
   XX=    27.1251   YX=     2.0105   ZX=     4.6493
   XY=     3.4059   YY=    34.3892   ZY=     2.3607
   XZ=     3.1405   YZ=     2.9310   ZZ=    29.2506
   Eigenvalues:    24.1156    29.4279    37.2213
    103  H    Isotropic =    31.6499   Anisotropy =    15.0461
   XX=    40.5476   YX=     3.3500   ZX=    -1.4858
   XY=     3.3844   YY=    26.1348   ZY=    -1.3963
   XZ=    -2.4779   YZ=    -1.6700   ZZ=    28.2674
   Eigenvalues:    25.0012    28.2680    41.6806
    104  H    Isotropic =    31.1072   Anisotropy =    13.8294
   XX=    38.4755   YX=    -3.1392   ZX=     3.2051
   XY=    -2.9460   YY=    27.9371   ZY=     0.3068
   XZ=     4.2530   YZ=    -1.2621   ZZ=    26.9091
   Eigenvalues:    25.7077    27.2872    40.3268
    105  H    Isotropic =    30.6685   Anisotropy =    11.0648
   XX=    27.6061   YX=     0.1672   ZX=     3.7330
   XY=     0.0697   YY=    28.1522   ZY=    -1.6061
   XZ=     4.4288   YZ=    -1.3170   ZZ=    36.2471
   Eigenvalues:    25.7928    28.1676    38.0450
    106  H    Isotropic =    30.6988   Anisotropy =    12.8264
   XX=    30.0705   YX=     5.4187   ZX=     2.0383
   XY=     6.1012   YY=    33.5642   ZY=     2.8536
   XZ=     2.6235   YZ=     3.4121   ZZ=    28.4618
   Eigenvalues:    25.7983    27.0484    39.2498
    107  H    Isotropic =    30.6355   Anisotropy =     7.1389
   XX=    32.8197   YX=    -3.3813   ZX=    -0.4601
   XY=    -1.9290   YY=    29.3754   ZY=     4.0181
   XZ=    -0.2208   YZ=     3.8831   ZZ=    29.7115
   Eigenvalues:    25.1915    31.3203    35.3948
    108  H    Isotropic =    31.5556   Anisotropy =     8.9955
   XX=    29.7246   YX=    -3.6159   ZX=    -4.0609
   XY=    -2.1910   YY=    28.9410   ZY=     0.1241
   XZ=    -2.3098   YZ=     0.2866   ZZ=    36.0012
   Eigenvalues:    25.9839    31.1303    37.5526
    109  H    Isotropic =    31.7581   Anisotropy =    11.9644
   XX=    32.0520   YX=     0.4377   ZX=     5.9989
   XY=     2.8443   YY=    29.6673   ZY=    -0.9280
   XZ=     7.7707   YZ=    -2.6116   ZZ=    33.5551
   Eigenvalues:    24.7116    30.8284    39.7344
    110  H    Isotropic =    31.0992   Anisotropy =    14.4613
   XX=    25.1483   YX=     0.5393   ZX=     1.1150
   XY=     0.7940   YY=    36.4459   ZY=    -5.3969
   XZ=     3.3364   YZ=    -6.9905   ZZ=    31.7034
   Eigenvalues:    23.7822    28.7754    40.7401
 End of Minotr F.D. properties file   721 does not exist.
 End of Minotr F.D. properties file   722 does not exist.
 End of Minotr F.D. properties file   788 does not exist.
 Hyperfine terms turned off by default for NAtoms > 100.

 **********************************************************************

            Population analysis using the SCF Density.

 **********************************************************************

 Orbital symmetries:
       Occupied  (A) (A) (A) (A) (A) (A) (A) (A) (A) (A) (A) (A)
                 (A) (A) (A) (A) (A) (A) (A) (A) (A) (A) (A) (A)
                 (A) (A) (A) (A) (A) (A) (A) (A) (A) (A) (A) (A)
                 (A) (A) (A) (A) (A) (A) (A) (A) (A) (A) (A) (A)
                 (A) (A) (A) (A) (A) (A) (A) (A) (A) (A) (A) (A)
                 (A) (A) (A) (A) (A) (A) (A) (A) (A) (A) (A) (A)
                 (A) (A) (A) (A) (A) (A) (A) (A) (A) (A) (A) (A)
                 (A) (A) (A) (A) (A) (A) (A) (A) (A) (A) (A) (A)
                 (A) (A) (A) (A) (A) (A) (A) (A) (A) (A) (A) (A)
                 (A) (A) (A) (A) (A) (A) (A) (A) (A) (A) (A) (A)
                 (A) (A) (A) (A) (A) (A) (A) (A) (A) (A) (A) (A)
                 (A) (A) (A) (A) (A) (A) (A) (A) (A) (A) (A) (A)
                 (A) (A) (A) (A) (A) (A) (A) (A) (A) (A) (A) (A)
                 (A) (A) (A) (A) (A) (A) (A) (A) (A) (A) (A) (A)
                 (A) (A) (A) (A) (A) (A) (A) (A) (A) (A) (A) (A)
                 (A) (A) (A) (A) (A) (A) (A) (A) (A) (A) (A) (A)
                 (A) (A) (A) (A) (A)
       Virtual   (A) (A) (A) (A) (A) (A) (A) (A) (A) (A) (A) (A)
                 (A) (A) (A) (A) (A) (A) (A) (A) (A) (A) (A) (A)
                 (A) (A) (A) (A) (A) (A) (A) (A) (A) (A) (A) (A)
                 (A) (A) (A) (A) (A) (A) (A) (A) (A) (A) (A) (A)
                 (A) (A) (A) (A) (A) (A) (A) (A) (A) (A) (A) (A)
                 (A) (A) (A) (A) (A) (A) (A) (A) (A) (A) (A) (A)
                 (A) (A) (A) (A) (A) (A) (A) (A) (A) (A) (A) (A)
                 (A) (A) (A) (A) (A) (A) (A) (A) (A) (A) (A) (A)
                 (A) (A) (A) (A) (A) (A) (A) (A) (A) (A) (A) (A)
                 (A) (A) (A) (A) (A) (A) (A) (A) (A) (A) (A) (A)
                 (A) (A) (A) (A) (A) (A) (A) (A) (A)
 The electronic state is 1-A.
 Alpha  occ. eigenvalues --  -20.30786 -20.28607 -20.24812 -20.22674 -19.92190
 Alpha  occ. eigenvalues --  -15.48200 -15.33813 -15.32346 -15.30545 -11.16671
 Alpha  occ. eigenvalues --  -11.15037 -11.10744 -11.09649 -11.09596 -11.09116
 Alpha  occ. eigenvalues --  -11.08846 -11.08665 -11.08563 -11.08176 -11.07189
 Alpha  occ. eigenvalues --  -11.06776 -11.06556 -11.06192 -11.06189 -11.06098
 Alpha  occ. eigenvalues --  -11.06031 -11.05898 -11.05876 -11.05697 -11.05429
 Alpha  occ. eigenvalues --  -11.05166 -11.04784 -11.04724 -11.04653 -11.04568
 Alpha  occ. eigenvalues --  -11.04501 -11.04208 -11.04091 -11.04057 -11.03911
 Alpha  occ. eigenvalues --  -11.03888 -11.03638 -11.03099 -11.02999 -11.02816
 Alpha  occ. eigenvalues --  -11.02324 -11.02115 -11.02061 -11.02049 -11.02035
 Alpha  occ. eigenvalues --  -11.01891 -11.01795 -11.01783 -11.01630  -1.38023
 Alpha  occ. eigenvalues --   -1.35955  -1.29534  -1.27832  -1.25840  -1.21642
 Alpha  occ. eigenvalues --   -1.19995  -1.18940  -1.10251  -1.09824  -1.08949
 Alpha  occ. eigenvalues --   -1.07552  -1.05796  -1.04983  -1.02739  -1.00935
 Alpha  occ. eigenvalues --   -0.99179  -0.98553  -0.98411  -0.97504  -0.96898
 Alpha  occ. eigenvalues --   -0.96259  -0.95078  -0.94606  -0.93936  -0.92431
 Alpha  occ. eigenvalues --   -0.91828  -0.91690  -0.89348  -0.89087  -0.87780
 Alpha  occ. eigenvalues --   -0.86415  -0.84569  -0.82622  -0.82052  -0.80695
 Alpha  occ. eigenvalues --   -0.80332  -0.79751  -0.78138  -0.77822  -0.77469
 Alpha  occ. eigenvalues --   -0.76988  -0.74380  -0.74052  -0.72907  -0.72189
 Alpha  occ. eigenvalues --   -0.71386  -0.70349  -0.69516  -0.68196  -0.66071
 Alpha  occ. eigenvalues --   -0.65120  -0.64964  -0.64282  -0.63672  -0.62971
 Alpha  occ. eigenvalues --   -0.62420  -0.62174  -0.61310  -0.61251  -0.61061
 Alpha  occ. eigenvalues --   -0.60774  -0.59891  -0.58940  -0.58776  -0.58432
 Alpha  occ. eigenvalues --   -0.58331  -0.58125  -0.57766  -0.57495  -0.57283
 Alpha  occ. eigenvalues --   -0.56961  -0.56469  -0.55798  -0.55507  -0.55436
 Alpha  occ. eigenvalues --   -0.55156  -0.54832  -0.54569  -0.54476  -0.54055
 Alpha  occ. eigenvalues --   -0.53669  -0.53549  -0.52948  -0.52525  -0.52338
 Alpha  occ. eigenvalues --   -0.51911  -0.51565  -0.51043  -0.50790  -0.50097
 Alpha  occ. eigenvalues --   -0.49931  -0.49705  -0.49433  -0.48645  -0.48570
 Alpha  occ. eigenvalues --   -0.48253  -0.48090  -0.47724  -0.46990  -0.46906
 Alpha  occ. eigenvalues --   -0.46543  -0.46056  -0.45955  -0.45734  -0.45254
 Alpha  occ. eigenvalues --   -0.44967  -0.44726  -0.44491  -0.43977  -0.43820
 Alpha  occ. eigenvalues --   -0.43593  -0.43212  -0.42746  -0.42452  -0.42351
 Alpha  occ. eigenvalues --   -0.42128  -0.41640  -0.41425  -0.41060  -0.40733
 Alpha  occ. eigenvalues --   -0.40223  -0.39832  -0.38622  -0.38545  -0.37886
 Alpha  occ. eigenvalues --   -0.37550  -0.37179  -0.36586  -0.35581  -0.34456
 Alpha  occ. eigenvalues --   -0.33490  -0.32421  -0.31608  -0.31244  -0.30726
 Alpha  occ. eigenvalues --   -0.27470  -0.26987  -0.26181  -0.22152  -0.21074
 Alpha  occ. eigenvalues --   -0.16138  -0.15646
 Alpha virt. eigenvalues --    0.26579   0.27270   0.27301   0.27946   0.30286
 Alpha virt. eigenvalues --    0.32658   0.45717   0.48043   0.48240   0.48622
 Alpha virt. eigenvalues --    0.49698   0.50034   0.50145   0.51174   0.52060
 Alpha virt. eigenvalues --    0.53959   0.54539   0.54798   0.55463   0.55759
 Alpha virt. eigenvalues --    0.56944   0.57226   0.57819   0.58649   0.58936
 Alpha virt. eigenvalues --    0.59106   0.59685   0.60055   0.60689   0.60937
 Alpha virt. eigenvalues --    0.61357   0.61701   0.62652   0.62767   0.63017
 Alpha virt. eigenvalues --    0.63304   0.64025   0.64050   0.64362   0.64657
 Alpha virt. eigenvalues --    0.64783   0.65057   0.65174   0.65432   0.66226
 Alpha virt. eigenvalues --    0.66479   0.66644   0.66839   0.67133   0.67473
 Alpha virt. eigenvalues --    0.67488   0.67981   0.68157   0.68362   0.68656
 Alpha virt. eigenvalues --    0.69001   0.69231   0.69380   0.69481   0.70290
 Alpha virt. eigenvalues --    0.70440   0.70480   0.70624   0.71073   0.71133
 Alpha virt. eigenvalues --    0.71244   0.71300   0.71823   0.72196   0.72431
 Alpha virt. eigenvalues --    0.72633   0.72980   0.73366   0.73585   0.73806
 Alpha virt. eigenvalues --    0.73930   0.73944   0.74453   0.74688   0.75017
 Alpha virt. eigenvalues --    0.75090   0.75495   0.75785   0.75944   0.76203
 Alpha virt. eigenvalues --    0.76594   0.76957   0.77117   0.77407   0.77520
 Alpha virt. eigenvalues --    0.77864   0.77939   0.78630   0.79080   0.79250
 Alpha virt. eigenvalues --    0.79577   0.79951   0.79984   0.80512   0.80756
 Alpha virt. eigenvalues --    0.81064   0.81272   0.81490   0.81629   0.82169
 Alpha virt. eigenvalues --    0.82389   0.83957   0.84186   0.84411   0.84443
 Alpha virt. eigenvalues --    0.86090   0.86117   0.86347   0.86974   0.87306
 Alpha virt. eigenvalues --    0.88415   0.89215   0.90647   0.91344   0.92958
 Alpha virt. eigenvalues --    0.94086   0.95339   0.97362   1.01293   1.03395
 Alpha virt. eigenvalues --    1.10215   1.11427   1.15221   1.15824
          Condensed to atoms (all electrons):
 Mulliken charges:
               1
     1  C   -0.074515
     2  C   -0.001542
     3  C   -0.064369
     4  C   -0.091571
     5  C    0.088330
     6  C   -0.013230
     7  N   -0.286828
     8  C    0.018286
     9  C    0.127660
    10  C    0.041041
    11  C   -0.114886
    12  C   -0.105590
    13  C    0.028043
    14  N   -0.291246
    15  C   -0.014811
    16  C   -0.108274
    17  C   -0.102001
    18  C   -0.105275
    19  C   -0.019357
    20  C   -0.110524
    21  C   -0.066603
    22  C    0.319411
    23  O   -0.276149
    24  O   -0.255764
    25  C   -0.055866
    26  C   -0.079293
    27  C   -0.110681
    28  C    0.007622
    29  C   -0.081284
    30  C   -0.066049
    31  C   -0.077256
    32  C    0.081860
    33  C   -0.012467
    34  N   -0.281604
    35  C    0.006536
    36  C    0.124122
    37  C    0.041608
    38  C   -0.100640
    39  C   -0.107462
    40  C    0.039732
    41  N   -0.080929
    42  C   -0.003729
    43  C   -0.097626
    44  C   -0.099228
    45  C   -0.105902
    46  C   -0.005236
    47  C   -0.096377
    48  C   -0.058527
    49  C    0.330750
    50  O   -0.283716
    51  O   -0.257343
    52  C   -0.054848
    53  C   -0.082978
    54  O   -0.462822
    55  H    0.068177
    56  H    0.055634
    57  H    0.058020
    58  H    0.056782
    59  H    0.050828
    60  H    0.054350
    61  H    0.048463
    62  H    0.050772
    63  H    0.054161
    64  H    0.062724
    65  H    0.054173
    66  H    0.050641
    67  H    0.050275
    68  H    0.051442
    69  H    0.059796
    70  H    0.062739
    71  H    0.058046
    72  H    0.052151
    73  H    0.068178
    74  H    0.051595
    75  H    0.065078
    76  H    0.073791
    77  H    0.073032
    78  H    0.077020
    79  H    0.055849
    80  H    0.071268
    81  H    0.077010
    82  H    0.061753
    83  H    0.060968
    84  H    0.056860
    85  H    0.056243
    86  H    0.065471
    87  H    0.054240
    88  H    0.057958
    89  H    0.053969
    90  H    0.052931
    91  H    0.045473
    92  H    0.084418
    93  H    0.056370
    94  H    0.080103
    95  H    0.057879
    96  H    0.058396
    97  H    0.046872
    98  H    0.065722
    99  H    0.098241
   100  H    0.089808
   101  H    0.058137
   102  H    0.096830
   103  H    0.046858
   104  H    0.069131
   105  H    0.067785
   106  H    0.073844
   107  H    0.079820
   108  H    0.066536
   109  H    0.069416
   110  H    0.065366
 Sum of Mulliken charges =  -0.00000
 Mulliken charges with hydrogens summed into heavy atoms:
               1
     1  C   -0.006338
     2  C   -0.001542
     3  C   -0.008735
     4  C   -0.033551
     5  C    0.088330
     6  C   -0.013230
     7  N   -0.286828
     8  C    0.018286
     9  C    0.127660
    10  C    0.097823
    11  C   -0.009708
    12  C   -0.006355
    13  C    0.028043
    14  N   -0.291246
    15  C    0.102074
    16  C   -0.003461
    17  C   -0.000284
    18  C    0.017260
    19  C    0.090840
    20  C    0.009250
    21  C   -0.001526
    22  C    0.319411
    23  O   -0.276149
    24  O   -0.255764
    25  C    0.167977
    26  C    0.124834
    27  C    0.012041
    28  C    0.007622
    29  C   -0.024424
    30  C   -0.009805
    31  C   -0.011785
    32  C    0.081860
    33  C   -0.012467
    34  N   -0.281604
    35  C    0.006536
    36  C    0.124122
    37  C    0.095848
    38  C    0.011287
    39  C   -0.009059
    40  C    0.039732
    41  N   -0.080929
    42  C    0.137059
    43  C    0.040355
    44  C    0.006040
    45  C    0.058062
    46  C    0.142710
    47  C    0.047311
    48  C    0.010604
    49  C    0.330750
    50  O   -0.283716
    51  O   -0.257343
    52  C    0.166601
    53  C    0.118339
    54  O   -0.462822
 Electronic spatial extent (au):  <R**2>=          37479.4449
 Charge=             -0.0000 electrons
 Dipole moment (field-independent basis, Debye):
    X=             -3.9266    Y=              0.0414    Z=             -3.1183  Tot=              5.0144
 Quadrupole moment (field-independent basis, Debye-Ang):
   XX=           -289.1732   YY=           -301.3396   ZZ=           -293.9786
   XY=             -1.7270   XZ=             -5.1691   YZ=             -8.8501
 Traceless Quadrupole moment (field-independent basis, Debye-Ang):
   XX=              5.6572   YY=             -6.5091   ZZ=              0.8519
   XY=             -1.7270   XZ=             -5.1691   YZ=             -8.8501
 Octapole moment (field-independent basis, Debye-Ang**2):
  XXX=            -97.8967  YYY=             73.0461  ZZZ=             23.5094  XYY=            -25.4901
  XXY=             35.3654  XXZ=             -1.6464  XZZ=             17.1795  YZZ=             37.2445
  YYZ=            -12.3042  XYZ=              7.1967
 Hexadecapole moment (field-independent basis, Debye-Ang**3):
 XXXX=         -31459.5184 YYYY=          -7671.0423 ZZZZ=          -6987.5302 XXXY=            -66.9343
 XXXZ=            251.3108 YYYX=           -139.1262 YYYZ=           -145.8870 ZZZX=            261.4617
 ZZZY=             33.0040 XXYY=          -6759.6030 XXZZ=          -6341.0448 YYZZ=          -2438.7113
 XXYZ=            -66.2356 YYXZ=            163.3815 ZZXY=             81.7372
 N-N= 8.117422877511D+03 E-N=-2.161159096544D+04  KE= 2.279164747939D+03
 ******************************Gaussian NBO Version 3.1******************************
             N A T U R A L   A T O M I C   O R B I T A L   A N D
          N A T U R A L   B O N D   O R B I T A L   A N A L Y S I S
 ******************************Gaussian NBO Version 3.1******************************
       /RESON  / : Allow strongly delocalized NBO set
       /NLMO   / : Form Natural Localized Molecular Orbitals
       /NMR /    : Analyze NMR Sheilding Tensor 

 Analyzing the SCF density

 Job title: Pleiokomenine_C_2                                               

 Storage needed:    355564 in NPA,    438187 in NBO,   2133784 in NLMO ( 104796000 available)
 GSVD:  LWork=     -108884 too small for GESVD, short by      536270 words or      536270 for optimal perf.


 NATURAL POPULATIONS:  Natural atomic orbital occupancies 
                                                          
   NAO  Atom  No  lang   Type(AO)    Occupancy      Energy
 ----------------------------------------------------------
     1    C    1  S      Cor( 1S)     1.99993     -10.94583
     2    C    1  S      Val( 2S)     1.08055      -0.17809
     3    C    1  px     Val( 2p)     0.99112       0.08001
     4    C    1  py     Val( 2p)     0.99886       0.08500
     5    C    1  pz     Val( 2p)     0.98513       0.15579
 
     6    C    2  S      Cor( 1S)     1.99990     -10.95621
     7    C    2  S      Val( 2S)     1.07893      -0.18460
     8    C    2  px     Val( 2p)     0.97183       0.09405
     9    C    2  py     Val( 2p)     0.97592       0.09456
    10    C    2  pz     Val( 2p)     0.96136       0.17615
 
    11    C    3  S      Cor( 1S)     1.99994     -10.94830
    12    C    3  S      Val( 2S)     1.08420      -0.18379
    13    C    3  px     Val( 2p)     0.99128       0.08068
    14    C    3  py     Val( 2p)     0.98700       0.08976
    15    C    3  pz     Val( 2p)     0.97376       0.15800
 
    16    C    4  S      Cor( 1S)     1.99993     -10.94166
    17    C    4  S      Val( 2S)     1.07176      -0.17445
    18    C    4  px     Val( 2p)     1.02310       0.06949
    19    C    4  py     Val( 2p)     1.01708       0.07993
    20    C    4  pz     Val( 2p)     0.97681       0.15949
 
    21    C    5  S      Cor( 1S)     1.99985     -10.98890
    22    C    5  S      Val( 2S)     1.05974      -0.18587
    23    C    5  px     Val( 2p)     0.93580       0.08651
    24    C    5  py     Val( 2p)     0.90573       0.10435
    25    C    5  pz     Val( 2p)     0.98742       0.14731
 
    26    C    6  S      Cor( 1S)     1.99990     -10.94770
    27    C    6  S      Val( 2S)     1.08408      -0.18925
    28    C    6  px     Val( 2p)     1.00164       0.08313
    29    C    6  py     Val( 2p)     0.98525       0.10842
    30    C    6  pz     Val( 2p)     0.95313       0.14879
 
    31    N    7  S      Cor( 1S)     1.99998     -15.27051
    32    N    7  S      Val( 2S)     1.40572      -0.59659
    33    N    7  px     Val( 2p)     1.23793      -0.05292
    34    N    7  py     Val( 2p)     1.56906      -0.18116
    35    N    7  pz     Val( 2p)     1.06250       0.01923
 
    36    C    8  S      Cor( 1S)     1.99996     -11.00778
    37    C    8  S      Val( 2S)     1.10932      -0.23316
    38    C    8  px     Val( 2p)     0.94105       0.10378
    39    C    8  py     Val( 2p)     0.97600       0.07390
    40    C    8  pz     Val( 2p)     0.95368       0.11529
 
    41    C    9  S      Cor( 1S)     1.99996     -11.05146
    42    C    9  S      Val( 2S)     1.11195      -0.25758
    43    C    9  px     Val( 2p)     0.93914       0.08927
    44    C    9  py     Val( 2p)     0.93308       0.08230
    45    C    9  pz     Val( 2p)     0.84481       0.11735
 
    46    C   10  S      Cor( 1S)     1.99993     -11.01813
    47    C   10  S      Val( 2S)     1.09643      -0.21913
    48    C   10  px     Val( 2p)     0.91754       0.11174
    49    C   10  py     Val( 2p)     0.99720       0.08396
    50    C   10  pz     Val( 2p)     0.91456       0.09310
 
    51    C   11  S      Cor( 1S)     1.99994     -10.98201
    52    C   11  S      Val( 2S)     1.10376      -0.21636
    53    C   11  px     Val( 2p)     0.99841       0.08001
    54    C   11  py     Val( 2p)     0.99670       0.08109
    55    C   11  pz     Val( 2p)     0.98627       0.08615
 
    56    C   12  S      Cor( 1S)     1.99996     -10.97944
    57    C   12  S      Val( 2S)     1.09138      -0.20165
    58    C   12  px     Val( 2p)     1.00056       0.08833
    59    C   12  py     Val( 2p)     1.00784       0.08668
    60    C   12  pz     Val( 2p)     0.97403       0.08656
 
    61    C   13  S      Cor( 1S)     1.99998     -11.00537
    62    C   13  S      Val( 2S)     1.10488      -0.22897
    63    C   13  px     Val( 2p)     0.95612       0.09936
    64    C   13  py     Val( 2p)     0.94044       0.10714
    65    C   13  pz     Val( 2p)     0.94818       0.10914
 
    66    N   14  S      Cor( 1S)     1.99999     -15.23830
    67    N   14  S      Val( 2S)     1.42197      -0.58008
    68    N   14  px     Val( 2p)     1.48654      -0.12917
    69    N   14  py     Val( 2p)     1.30360      -0.05386
    70    N   14  pz     Val( 2p)     1.06753       0.04229
 
    71    C   15  S      Cor( 1S)     1.99994     -11.00768
    72    C   15  S      Val( 2S)     1.06943      -0.18923
    73    C   15  px     Val( 2p)     0.97669       0.09249
    74    C   15  py     Val( 2p)     1.02164       0.07344
    75    C   15  pz     Val( 2p)     0.89360       0.11768
 
    76    C   16  S      Cor( 1S)     1.99997     -10.97672
    77    C   16  S      Val( 2S)     1.08108      -0.19021
    78    C   16  px     Val( 2p)     0.98138       0.09216
    79    C   16  py     Val( 2p)     1.01288       0.09037
    80    C   16  pz     Val( 2p)     0.99936       0.08908
 
    81    C   17  S      Cor( 1S)     1.99996     -10.98032
    82    C   17  S      Val( 2S)     1.08591      -0.19581
    83    C   17  px     Val( 2p)     0.99727       0.08973
    84    C   17  py     Val( 2p)     1.01084       0.08697
    85    C   17  pz     Val( 2p)     0.97426       0.09120
 
    86    C   18  S      Cor( 1S)     1.99995     -10.97713
    87    C   18  S      Val( 2S)     1.09203      -0.19748
    88    C   18  px     Val( 2p)     1.00012       0.08662
    89    C   18  py     Val( 2p)     1.00764       0.09263
    90    C   18  pz     Val( 2p)     0.97526       0.08949
 
    91    C   19  S      Cor( 1S)     1.99994     -11.00019
    92    C   19  S      Val( 2S)     1.07158      -0.18465
    93    C   19  px     Val( 2p)     1.01312       0.08243
    94    C   19  py     Val( 2p)     0.89786       0.12539
    95    C   19  pz     Val( 2p)     0.98377       0.08208
 
    96    C   20  S      Cor( 1S)     1.99992     -10.98569
    97    C   20  S      Val( 2S)     1.09963      -0.21344
    98    C   20  px     Val( 2p)     1.02534       0.07321
    99    C   20  py     Val( 2p)     0.98517       0.08121
   100    C   20  pz     Val( 2p)     0.96372       0.09244
 
   101    C   21  S      Cor( 1S)     1.99994     -11.01004
   102    C   21  S      Val( 2S)     1.11072      -0.24061
   103    C   21  px     Val( 2p)     1.00903       0.06239
   104    C   21  py     Val( 2p)     0.97008       0.07854
   105    C   21  pz     Val( 2p)     0.99479       0.06752
 
   106    C   22  S      Cor( 1S)     1.99991     -11.11375
   107    C   22  S      Val( 2S)     1.05479      -0.26272
   108    C   22  px     Val( 2p)     0.86707       0.02010
   109    C   22  py     Val( 2p)     0.90027       0.07939
   110    C   22  pz     Val( 2p)     0.77537       0.17006
 
   111    O   23  S      Cor( 1S)     1.99999     -20.10050
   112    O   23  S      Val( 2S)     1.80805      -1.06015
   113    O   23  px     Val( 2p)     1.30485      -0.13821
   114    O   23  py     Val( 2p)     1.68269      -0.26019
   115    O   23  pz     Val( 2p)     1.51460      -0.18812
 
   116    O   24  S      Cor( 1S)     1.99999     -20.21731
   117    O   24  S      Val( 2S)     1.73032      -1.03015
   118    O   24  px     Val( 2p)     1.74944      -0.33463
   119    O   24  py     Val( 2p)     1.33006      -0.14926
   120    O   24  pz     Val( 2p)     1.45756      -0.20685
 
   121    C   25  S      Cor( 1S)     1.99984     -11.04777
   122    C   25  S      Val( 2S)     1.07702      -0.22951
   123    C   25  px     Val( 2p)     1.00087       0.04695
   124    C   25  py     Val( 2p)     0.84510       0.07798
   125    C   25  pz     Val( 2p)     1.04263       0.03149
 
   126    C   26  S      Cor( 1S)     1.99992     -11.01759
   127    C   26  S      Val( 2S)     1.06549      -0.19830
   128    C   26  px     Val( 2p)     0.97500       0.07208
   129    C   26  py     Val( 2p)     1.03237       0.05754
   130    C   26  pz     Val( 2p)     0.94381       0.07781
 
   131    C   27  S      Cor( 1S)     1.99995     -10.98494
   132    C   27  S      Val( 2S)     1.08443      -0.19119
   133    C   27  px     Val( 2p)     0.97702       0.09957
   134    C   27  py     Val( 2p)     1.00552       0.08438
   135    C   27  pz     Val( 2p)     1.02148       0.08284
 
   136    C   28  S      Cor( 1S)     1.99990     -10.96171
   137    C   28  S      Val( 2S)     1.08283      -0.18923
   138    C   28  px     Val( 2p)     0.95341       0.12140
   139    C   28  py     Val( 2p)     0.96201       0.16909
   140    C   28  pz     Val( 2p)     0.97390       0.07265
 
   141    C   29  S      Cor( 1S)     1.99992     -10.94622
   142    C   29  S      Val( 2S)     1.07743      -0.17870
   143    C   29  px     Val( 2p)     0.98757       0.10903
   144    C   29  py     Val( 2p)     0.98433       0.14686
   145    C   29  pz     Val( 2p)     1.01849       0.05425
 
   146    C   30  S      Cor( 1S)     1.99994     -10.94629
   147    C   30  S      Val( 2S)     1.08413      -0.18263
   148    C   30  px     Val( 2p)     0.98534       0.11426
   149    C   30  py     Val( 2p)     0.97619       0.15274
   150    C   30  pz     Val( 2p)     0.99677       0.06462
 
   151    C   31  S      Cor( 1S)     1.99993     -10.94368
   152    C   31  S      Val( 2S)     1.07615      -0.17421
   153    C   31  px     Val( 2p)     1.00004       0.10972
   154    C   31  py     Val( 2p)     0.97948       0.15421
   155    C   31  pz     Val( 2p)     1.01217       0.05641
 
   156    C   32  S      Cor( 1S)     1.99985     -10.97899
   157    C   32  S      Val( 2S)     1.06605      -0.18527
   158    C   32  px     Val( 2p)     0.89409       0.13960
   159    C   32  py     Val( 2p)     0.97027       0.15914
   160    C   32  pz     Val( 2p)     0.96906       0.05615
 
   161    C   33  S      Cor( 1S)     1.99990     -10.95076
   162    C   33  S      Val( 2S)     1.08799      -0.19415
   163    C   33  px     Val( 2p)     0.97965       0.11822
   164    C   33  py     Val( 2p)     0.95050       0.14380
   165    C   33  pz     Val( 2p)     0.99928       0.07211
 
   166    N   34  S      Cor( 1S)     1.99998     -15.25726
   167    N   34  S      Val( 2S)     1.44383      -0.59963
   168    N   34  px     Val( 2p)     1.44043      -0.11882
   169    N   34  py     Val( 2p)     1.27680      -0.05969
   170    N   34  pz     Val( 2p)     1.11186       0.01942
 
   171    C   35  S      Cor( 1S)     1.99996     -11.00915
   172    C   35  S      Val( 2S)     1.10530      -0.23492
   173    C   35  px     Val( 2p)     0.96549       0.09249
   174    C   35  py     Val( 2p)     0.95364       0.11362
   175    C   35  pz     Val( 2p)     0.97583       0.06834
 
   176    C   36  S      Cor( 1S)     1.99996     -11.04353
   177    C   36  S      Val( 2S)     1.12228      -0.25897
   178    C   36  px     Val( 2p)     0.92592       0.10638
   179    C   36  py     Val( 2p)     0.85242       0.13824
   180    C   36  pz     Val( 2p)     0.93044       0.07294
 
   181    C   37  S      Cor( 1S)     1.99991     -11.03298
   182    C   37  S      Val( 2S)     1.10970      -0.24976
   183    C   37  px     Val( 2p)     0.98162       0.06361
   184    C   37  py     Val( 2p)     0.87271       0.08577
   185    C   37  pz     Val( 2p)     0.96373       0.07347
 
   186    C   38  S      Cor( 1S)     1.99991     -10.97282
   187    C   38  S      Val( 2S)     1.11177      -0.21062
   188    C   38  px     Val( 2p)     1.01309       0.08781
   189    C   38  py     Val( 2p)     0.98641       0.10284
   190    C   38  pz     Val( 2p)     0.95458       0.10189
 
   191    C   39  S      Cor( 1S)     1.99996     -10.97427
   192    C   39  S      Val( 2S)     1.08993      -0.19567
   193    C   39  px     Val( 2p)     1.01878       0.08733
   194    C   39  py     Val( 2p)     0.98153       0.08819
   195    C   39  pz     Val( 2p)     0.98877       0.09577
 
   196    C   40  S      Cor( 1S)     1.99998     -11.01007
   197    C   40  S      Val( 2S)     1.09757      -0.22371
   198    C   40  px     Val( 2p)     0.93355       0.11071
   199    C   40  py     Val( 2p)     0.95092       0.10493
   200    C   40  pz     Val( 2p)     0.96017       0.09889
 
   201    N   41  S      Cor( 1S)     1.99999     -15.41803
   202    N   41  S      Val( 2S)     1.39328      -0.65795
   203    N   41  px     Val( 2p)     1.21609      -0.12836
   204    N   41  py     Val( 2p)     1.15794      -0.10041
   205    N   41  pz     Val( 2p)     1.19921      -0.11003
 
   206    C   42  S      Cor( 1S)     1.99992     -11.03829
   207    C   42  S      Val( 2S)     1.09124      -0.23540
   208    C   42  px     Val( 2p)     1.00009       0.05382
   209    C   42  py     Val( 2p)     0.94428       0.06396
   210    C   42  pz     Val( 2p)     0.91477       0.07781
 
   211    C   43  S      Cor( 1S)     1.99995     -10.99167
   212    C   43  S      Val( 2S)     1.08685      -0.20541
   213    C   43  px     Val( 2p)     0.96077       0.09222
   214    C   43  py     Val( 2p)     0.99742       0.07857
   215    C   43  pz     Val( 2p)     1.01907       0.08014
 
   216    C   44  S      Cor( 1S)     1.99995     -10.98662
   217    C   44  S      Val( 2S)     1.09144      -0.20501
   218    C   44  px     Val( 2p)     1.00715       0.08373
   219    C   44  py     Val( 2p)     0.97295       0.09153
   220    C   44  pz     Val( 2p)     0.99100       0.08512
 
   221    C   45  S      Cor( 1S)     1.99993     -10.98474
   222    C   45  S      Val( 2S)     1.09905      -0.20894
   223    C   45  px     Val( 2p)     0.99123       0.08459
   224    C   45  py     Val( 2p)     0.97735       0.08199
   225    C   45  pz     Val( 2p)     1.00677       0.08547
 
   226    C   46  S      Cor( 1S)     1.99993     -11.03182
   227    C   46  S      Val( 2S)     1.09442      -0.23306
   228    C   46  px     Val( 2p)     0.89199       0.08854
   229    C   46  py     Val( 2p)     0.98542       0.05315
   230    C   46  pz     Val( 2p)     0.98254       0.06026
 
   231    C   47  S      Cor( 1S)     1.99991     -10.97346
   232    C   47  S      Val( 2S)     1.10376      -0.20154
   233    C   47  px     Val( 2p)     0.98720       0.10293
   234    C   47  py     Val( 2p)     1.00956       0.09878
   235    C   47  pz     Val( 2p)     0.95781       0.10305
 
   236    C   48  S      Cor( 1S)     1.99993     -11.00422
[...]
  102       0.3863        1.4840      -1.0978        -0.6966       1.0828
  103       1.7293       -0.2823       2.0116        -0.0881       1.8174
  104      26.3884        0.7936      25.5948         0.6594      25.7290
  105       0.2906       -1.5078       1.7984        -0.3767       0.6673
  107       0.1120       -1.5848       1.6967        -0.8002       0.9121
  109      -0.0536       -1.2031       1.1495        -0.7947       0.7411
 Sum       31.1749       -5.2774      36.4522        -1.0450      32.2199

 Contributions to Isotropic shielding for atom   94 (    31.2499 ppm):
                         Standard Origin              Atomic Origin
 NLMO      Total    Paramagnetic  Diamagnetic   Paramagnetic  Diamagnetic
   89      -0.5205        0.3726      -0.8931        -1.0945       0.5740
   98      -0.0911        0.1842      -0.2752        -1.0032       0.9121
   99      -0.6045        0.5176      -1.1221        -1.4744       0.8700
  102       1.7213       -0.8365       2.5578         0.8269       0.8943
  103       0.0596        1.2440      -1.1844        -0.9226       0.9822
  105       0.6849        2.4556      -1.7706        -0.4798       1.1648
  106      25.7772       -0.1494      25.9266         0.5251      25.2520
  107       1.7378        3.5418      -1.8039        -0.0935       1.8313
  108       0.1095       -0.1630       0.2725        -0.8919       1.0014
  116      -0.2859       -1.0085       0.7225        -0.5779       0.2920
  195       0.2022       -0.9324       1.1346         1.1269      -0.9248
 Sum       28.7906        5.2259      23.5647        -4.0588      32.8494

 Contributions to Isotropic shielding for atom   95 (    32.4406 ppm):
                         Standard Origin              Atomic Origin
 NLMO      Total    Paramagnetic  Diamagnetic   Paramagnetic  Diamagnetic
  102       1.6582       -0.1140       1.7722         0.6982       0.9600
  103       0.2980        1.2795      -0.9815        -0.5850       0.8830
  104       0.1000        1.0677      -0.9677        -0.8511       0.9511
  105       0.6536        2.7801      -2.1264        -0.4527       1.1063
  106       1.9096        3.5664      -1.6568         0.0677       1.8420
  107      26.3266       -0.1531      26.4797         0.5073      25.8193
  109       0.0645       -0.3244       0.3888        -1.0539       1.1183
 Sum       31.0106        8.1022      22.9084        -1.6694      32.6800

 Contributions to Isotropic shielding for atom   96 (    32.1767 ppm):
                         Standard Origin              Atomic Origin
 NLMO      Total    Paramagnetic  Diamagnetic   Paramagnetic  Diamagnetic
   89      -0.3995        0.3370      -0.7366        -1.1131       0.7136
   94      -0.1787        1.3604      -1.5391        -0.7027       0.5241
   97       0.8883        1.8522      -0.9639        -0.0732       0.9615
   98      -0.3349        1.6691      -2.0040        -1.3121       0.9773
  105       0.6704        2.7499      -2.0795        -0.3967       1.0671
  106       0.0795        0.8450      -0.7655        -1.0256       1.1052
  107       0.3233        1.0023      -0.6790        -0.5455       0.8688
  108      26.4681       -0.3958      26.8639         0.7178      25.7502
  109       1.9485        2.8587      -0.9102         0.2199       1.7286
 Sum       29.4651       12.2789      17.1861        -4.2313      33.6964

 Contributions to Isotropic shielding for atom   97 (    32.7785 ppm):
                         Standard Origin              Atomic Origin
 NLMO      Total    Paramagnetic  Diamagnetic   Paramagnetic  Diamagnetic
   90      -0.1499        1.1083      -1.2582        -0.8209       0.6710
   94      -0.1856        0.5299      -0.7155        -1.0998       0.9142
   97       1.8733       -1.0464       2.9196         0.9244       0.9489
  105       1.4054       -0.3530       1.7584         0.2912       1.1142
  107       0.0445        0.0401       0.0044        -0.9717       1.0161
  108       1.4892        3.7943      -2.3051        -0.3483       1.8375
  109      26.5212        0.2532      26.2680         0.4592      26.0620
 Sum       30.9981        4.3265      26.6716        -1.5659      32.5640

 Contributions to Isotropic shielding for atom   98 (    33.0115 ppm):
                         Standard Origin              Atomic Origin
 NLMO      Total    Paramagnetic  Diamagnetic   Paramagnetic  Diamagnetic
   71      -0.0531       -1.1109       1.0579        -1.1276       1.0745
   80       0.2956       -0.9372       1.2328        -0.7905       1.0861
   82       0.1128       -0.9616       1.0743        -0.5687       0.6814
   85       1.0185        0.6019       0.4166         0.3766       0.6419
  110       1.4213       -0.8931       2.3144         0.6067       0.8146
  111      25.9685        0.5327      25.4359         0.4515      25.5171
  112       1.9370        0.8664       1.0705         0.0084       1.9285
  121       0.0900       -1.1008       1.1908        -0.6879       0.7779
 Sum       30.7906       -3.0026      33.7932        -1.7315      32.5221

 Contributions to Isotropic shielding for atom   99 (    31.3354 ppm):
                         Standard Origin              Atomic Origin
 NLMO      Total    Paramagnetic  Diamagnetic   Paramagnetic  Diamagnetic
   85       0.2523        1.9530      -1.7007        -0.5809       0.8332
   87      -0.0009       -1.1444       1.1435        -0.8446       0.8437
  100      -0.1692        0.1392      -0.3084        -1.0035       0.8343
  110       1.0526        0.7378       0.3148         0.3062       0.7463
  111       1.9860        0.2448       1.7412         0.0612       1.9248
  112      25.4008        0.0616      25.3392         0.5468      24.8540
  113       0.0470       -0.0406       0.0876        -0.9632       1.0103
  115       0.0624       -1.0013       1.0636        -0.4972       0.5596
  118       0.7706       -1.3361       2.1067        -0.1078       0.8784
  120       1.2006       -0.7754       1.9761         0.5295       0.6711
  121      -0.0298       -3.2270       3.1972        -1.1259       1.0961
  123       0.2616       -1.0710       1.3326        -0.4508       0.7124
  191      -0.8193        1.7489      -2.5682         0.2585      -1.0778
 Sum       30.0148       -3.7105      33.7253        -3.8718      33.8865

 Contributions to Isotropic shielding for atom  100 (    31.3547 ppm):
                         Standard Origin              Atomic Origin
 NLMO      Total    Paramagnetic  Diamagnetic   Paramagnetic  Diamagnetic
  100      -0.0251        1.5988      -1.6239        -0.7979       0.7728
  101       0.1315       -1.0409       1.1724        -0.8848       1.0163
  103      -0.0541       -1.3127       1.2586        -0.8808       0.8267
  112       0.1432       -0.4485       0.5917        -0.8962       1.0394
  113      25.6988        0.5847      25.1142         0.8318      24.8670
  114       1.9699       -0.5134       2.4834         0.2842       1.6857
  195       0.0478        1.0099      -0.9621         0.8586      -0.8108
 Sum       27.9120       -0.1222      28.0342        -1.4851      29.3971

 Contributions to Isotropic shielding for atom  101 (    32.3404 ppm):
                         Standard Origin              Atomic Origin
 NLMO      Total    Paramagnetic  Diamagnetic   Paramagnetic  Diamagnetic
   71       0.1891       -0.7336       0.9227        -0.9422       1.1313
   84       0.1647       -0.9136       1.0783        -0.6625       0.8272
   89       0.9528       -0.6336       1.5864         0.0549       0.8979
   99       0.5814       -0.5792       1.1606        -0.1484       0.7299
  100       0.5288        1.0405      -0.5117         0.0705       0.4583
  103       0.1503       -0.9070       1.0573        -0.5815       0.7319
  104      -0.0251       -1.3251       1.3000        -0.8272       0.8021
  110       1.0414       -0.6389       1.6803         0.2069       0.8344
  113       1.6841       -0.3403       2.0245        -0.1562       1.8403
  114      26.2488        0.6505      25.5983         0.5899      25.6588
 Sum       31.5163       -4.3803      35.8966        -2.3957      33.9121

 Contributions to Isotropic shielding for atom  102 (    30.2550 ppm):
                         Standard Origin              Atomic Origin
 NLMO      Total    Paramagnetic  Diamagnetic   Paramagnetic  Diamagnetic
   89      -0.6680        0.4137      -1.0817        -1.5664       0.8985
   97      -0.2011        0.7946      -0.9957        -1.0367       0.8356
   98       1.6149       -0.9425       2.5573         0.6828       0.9320
  115       1.1948        0.0996       1.0952         0.3225       0.8723
  116      25.3813        0.0615      25.3198         0.6140      24.7674
  117       1.0238        3.8013      -2.7775        -0.8993       1.9231
  118      -0.3574        0.2884      -0.6458        -1.4250       1.0677
  119       0.3171        1.1982      -0.8810        -0.1787       0.4958
  122       0.8846       -1.1857       2.0703        -0.3862       1.2709
  193      -1.0387        0.8769      -1.9156         0.2860      -1.3248
 Sum       28.1513        5.4061      22.7452        -3.5871      31.7384

 Contributions to Isotropic shielding for atom  103 (    31.6499 ppm):
                         Standard Origin              Atomic Origin
 NLMO      Total    Paramagnetic  Diamagnetic   Paramagnetic  Diamagnetic
   94      -0.3883        1.4536      -1.8419        -1.3571       0.9688
   97      -0.2173        1.5251      -1.7425        -0.8145       0.5972
   98       0.9947        1.5339      -0.5392         0.0461       0.9486
  115       0.5877        3.2923      -2.7045        -0.5238       1.1115
  116       1.8254        3.6894      -1.8640        -0.1915       2.0169
  117      26.9077       -0.7856      27.6934         0.8730      26.0348
  119      -0.1812        0.5023      -0.6835        -1.2956       1.1144
  122       0.3411       -0.5191       0.8603        -0.7836       1.1247
 Sum       29.8699       10.6918      19.1781        -4.0470      33.9169

 Contributions to Isotropic shielding for atom  104 (    31.1072 ppm):
                         Standard Origin              Atomic Origin
 NLMO      Total    Paramagnetic  Diamagnetic   Paramagnetic  Diamagnetic
   81      -0.4291        1.5146      -1.9437        -1.3445       0.9155
   86      -0.3155        2.0543      -2.3698        -1.5326       1.2171
   87       1.4076        1.6457      -0.2381         0.3519       1.0557
   93      -0.0855       -1.7116       1.6260        -0.8531       0.7676
  115       0.8110        4.2846      -3.4737        -0.3967       1.2077
  117      -0.0705       -0.4231       0.3527        -1.2144       1.1439
  118       0.5070        4.7977      -4.2907        -0.5599       1.0669
  119      26.1293       -0.8815      27.0108         0.6286      25.5007
  122      -0.1803       -0.1646      -0.0156        -1.6393       1.4591
 Sum       27.7740       11.1161      16.6579        -6.5601      34.3341

 Contributions to Isotropic shielding for atom  105 (    30.6685 ppm):
                         Standard Origin              Atomic Origin
 NLMO      Total    Paramagnetic  Diamagnetic   Paramagnetic  Diamagnetic
  120      -1.1549        0.6860      -1.8410        -2.0504       0.8955
  121      -0.3881        1.8501      -2.2382        -1.9313       1.5432
  122      -0.9546        0.4218      -1.3764        -1.7383       0.7837
  123       1.0280        0.5082       0.5197        -0.4731       1.5011
  124      26.3623        0.5883      25.7740         1.0062      25.3561
  125       1.1586        3.8795      -2.7208        -0.8728       2.0315
  126       1.9042       -0.8332       2.7374         0.0296       1.8746
  191       0.4817       -1.3808       1.8625         1.2659      -0.7842
  193       1.3472       -0.4107       1.7579         1.3952      -0.0481
 Sum       29.7843        5.3092      24.4751        -3.3689      33.1532

 Contributions to Isotropic shielding for atom  106 (    30.6988 ppm):
                         Standard Origin              Atomic Origin
 NLMO      Total    Paramagnetic  Diamagnetic   Paramagnetic  Diamagnetic
  120      -0.5397        0.1587      -0.6983        -1.1755       0.6358
  121      -0.0251        0.7784      -0.8035        -1.0621       1.0371
  123       0.4158        3.4034      -2.9876        -1.6703       2.0861
  124       0.8632        3.6383      -2.7750        -1.1122       1.9755
  125      26.2032        0.3719      25.8313         0.9082      25.2950
  126       1.6890        0.5729       1.1160        -0.3142       2.0032
  193       0.6875       -1.1056       1.7931         1.1544      -0.4669
 Sum       29.2940        7.8181      21.4759        -3.2717      32.5657

 Contributions to Isotropic shielding for atom  107 (    30.6355 ppm):
                         Standard Origin              Atomic Origin
 NLMO      Total    Paramagnetic  Diamagnetic   Paramagnetic  Diamagnetic
  120      -0.7532        0.4074      -1.1606        -1.6423       0.8891
  121      -0.1642        0.8518      -1.0159        -1.7128       1.5487
  122      -0.2960        0.3274      -0.6234        -1.1899       0.8939
  123       2.6889       -5.1908       7.8797         1.2836       1.4053
  124       1.5721       -0.1484       1.7205        -0.2929       1.8650
  125       1.4935        0.8265       0.6670        -0.5425       2.0360
  126      25.7919        1.0553      24.7366         0.7336      25.0583
  193       0.6541        1.0191      -0.3650         0.6942      -0.0401
  194       0.2168       -0.9098       1.1266        -0.3376       0.5543
 Sum       31.2039       -1.7615      32.9654        -3.0067      34.2106

 Contributions to Isotropic shielding for atom  108 (    31.5556 ppm):
                         Standard Origin              Atomic Origin
 NLMO      Total    Paramagnetic  Diamagnetic   Paramagnetic  Diamagnetic
   76      -0.6339       -0.2711      -0.3628        -1.4623       0.8284
   82       1.9805       -2.8413       4.8218         1.1779       0.8026
   85      -0.1588        0.4590      -0.6179        -1.0908       0.9319
  121       0.1052       -1.0106       1.1158        -0.7922       0.8974
  127      26.0107        0.9602      25.0504         0.5757      25.4349
  128       1.8263        1.2472       0.5791         0.0083       1.8180
  129       1.7989        0.2716       1.5273        -0.1003       1.8992
  191      -0.3977        0.7862      -1.1838         0.5896      -0.9873
 Sum       30.5312       -0.3988      30.9300        -1.0939      31.6251

 Contributions to Isotropic shielding for atom  109 (    31.7581 ppm):
                         Standard Origin              Atomic Origin
 NLMO      Total    Paramagnetic  Diamagnetic   Paramagnetic  Diamagnetic
   76      -0.4869       -0.0885      -0.3984        -1.3191       0.8322
   82       0.6929        1.8796      -1.1867        -0.6154       1.3084
   87      -0.1704        0.4886      -0.6589        -1.1054       0.9350
  121      -0.3587        0.1171      -0.4758        -1.4478       1.0891
  127       2.0372       -0.1570       2.1942         0.2588       1.7784
  128      26.2277        0.1517      26.0760         0.7469      25.4807
  129       1.4814        3.4678      -1.9864        -0.5224       2.0038
  191       0.1213       -0.2034       0.3247         1.0882      -0.9669
 Sum       29.5444        5.6558      23.8886        -2.9163      32.4607

 Contributions to Isotropic shielding for atom  110 (    31.0992 ppm):
                         Standard Origin              Atomic Origin
 NLMO      Total    Paramagnetic  Diamagnetic   Paramagnetic  Diamagnetic
   75      -0.3914        0.6162      -1.0076        -1.0871       0.6956
   76      -0.7802       -0.0358      -0.7445        -2.0731       1.2928
   79      -0.2889        0.3116      -0.6005        -1.1460       0.8571
   82       1.0267        0.6386       0.3880        -0.1917       1.2183
  127       2.0307       -0.5208       2.5515         0.1884       1.8423
  128       1.4027        3.4609      -2.0583        -0.5879       1.9906
  129      26.2449        0.2343      26.0107         0.6948      25.5501
 Sum       29.2445        4.7051      24.5394        -4.2025      33.4470
 
 1\1\GINC-PCSN02\SP\RHF\STO-3G\C45H56N4O5\ABENIDD\30-May-2024\0\\# nmr=
 giao hf/sto-3g pop=nbo geom=connectivity\\Pleiokomenine_C_2\\0,1\C,0,0
 .,0.,0.\C,0,1.4023,0.,0.\C,0,2.095,1.229,0.\C,0,1.4092,2.4508,0.0101\C
 ,0,0.0254,2.4435,0.0135\C,0,-0.6629,1.2178,0.0268\N,0,-0.8567,3.5567,0
 .0059\C,0,-2.1399,1.4935,0.1621\C,0,-2.1347,2.9491,-0.449\C,0,-3.1676,
 0.6341,-0.5872\C,0,-2.1257,2.8377,-2.0359\C,0,-3.3859,2.1303,-2.551\C,
 0,-4.1704,1.5649,-1.3507\N,0,-3.7515,-0.2279,0.4419\C,0,-4.9864,-0.898
 ,0.0607\C,0,-6.0136,-0.0114,-0.643\C,0,-5.3869,0.7492,-1.8118\C,0,-2.4
 795,1.2887,1.6593\C,0,-3.7881,0.5105,1.694\C,0,-4.6254,2.816,-0.5243\C
 ,0,-3.4268,3.7222,-0.1318\C,0,-3.5644,4.2844,1.2718\O,0,-4.3133,3.8465
 ,2.136\O,0,-2.7926,5.3978,1.4221\C,0,-2.8513,5.9784,2.7247\C,0,-0.3542
 ,4.7865,-0.5883\C,0,2.1661,-1.309,0.0406\C,0,1.8802,-2.1833,1.2484\C,0
 ,1.6397,-1.6242,2.5145\C,0,1.8797,-3.5895,1.1005\C,0,1.6224,-4.4386,2.
 1836\C,0,1.3655,-3.8725,3.4182\C,0,1.36,-2.4728,3.5734\N,0,1.1697,-4.5
 844,4.6545\C,0,0.8528,-2.1592,4.9599\C,0,1.3464,-3.4767,5.6404\C,0,1.3
 912,-0.9956,5.7786\C,0,2.9783,-3.4195,5.7702\C,0,3.4724,-2.1239,6.4124
 \C,0,2.2628,-1.3785,6.9851\N,0,0.1724,-0.2064,6.2257\C,0,0.635,1.1412,
 6.6752\C,0,1.5581,0.9598,7.896\C,0,2.6926,-0.0693,7.6898\C,0,-0.6406,-
 1.7838,4.7284\C,0,-0.6941,-0.275,5.0219\C,0,1.5701,-2.4168,7.9282\C,0,
 0.9391,-3.6251,7.1312\C,0,-0.5284,-3.8169,7.5005\O,0,-1.4347,-4.1321,6
 .7429\O,0,-0.6795,-3.7456,8.8597\C,0,-2.0324,-3.8565,9.2992\C,0,-0.045
 5,-5.3854,4.6162\O,0,-0.545,-0.7714,7.2513\H,0,-0.5605,-0.9313,0.0323\
 H,0,3.1831,1.2406,0.0047\H,0,1.9685,3.3792,0.0195\H,0,-2.6711,-0.0221,
 -1.315\H,0,-2.0671,3.834,-2.4928\H,0,-1.2417,2.2996,-2.4005\H,0,-4.004
 3,2.8349,-3.1213\H,0,-3.1014,1.3352,-3.2513\H,0,-4.7213,-1.7174,-0.620
 1\H,0,-5.4458,-1.3808,0.9318\H,0,-6.8326,-0.6363,-1.0184\H,0,-6.4611,0
 .6864,0.0729\H,0,-5.0818,0.0267,-2.5801\H,0,-6.1385,1.3993,-2.2754\H,0
 ,-1.7222,0.6637,2.1541\H,0,-2.5125,2.2065,2.2451\H,0,-3.8135,-0.1662,2
 .555\H,0,-4.6486,1.1761,1.7776\H,0,-5.2208,2.5253,0.3413\H,0,-5.314,3.
 4165,-1.1362\H,0,-3.4848,4.609,-0.7817\H,0,-2.5311,5.2566,3.4829\H,0,-
 3.8618,6.3418,2.9356\H,0,-2.1653,6.8296,2.7471\H,0,0.0716,4.6184,-1.58
 4\H,0,0.4148,5.2331,0.051\H,0,-1.1551,5.5254,-0.6875\H,0,1.9242,-1.854
 5,-0.8809\H,0,3.2465,-1.119,0.0162\H,0,1.6163,-0.5477,2.6498\H,0,2.085
 4,-4.0344,0.1288\H,0,1.6537,-5.5154,2.0612\H,0,1.9464,-0.3144,5.1161\H
 ,0,3.4918,-3.5413,4.8079\H,0,3.3178,-4.2805,6.3638\H,0,4.2128,-2.3484,
 7.19\H,0,3.9889,-1.5118,5.6619\H,0,-0.2606,1.7179,6.9289\H,0,1.1505,1.
 6154,5.8336\H,0,0.9583,0.6415,8.7577\H,0,1.992,1.9289,8.1678\H,0,3.162
 1,-0.2933,8.6552\H,0,3.4649,0.4216,7.0818\H,0,-1.0247,-1.9818,3.7207\H
 ,0,-1.3069,-2.3005,5.415\H,0,-1.6926,0.0918,5.276\H,0,-0.2344,0.3359,4
 .2386\H,0,0.8585,-1.9286,8.5983\H,0,2.3267,-2.8278,8.613\H,0,1.4027,-4
 .5501,7.5079\H,0,-2.4155,-4.862,9.0999\H,0,-2.0525,-3.6862,10.3792\H,0
 ,-2.66,-3.0986,8.8194\H,0,-0.9362,-4.783,4.4106\H,0,-0.1704,-5.9213,5.
 5615\H,0,0.0245,-6.1584,3.842\\Version=ES64L-G16RevB.01\State=1-A\HF=-
 2300.1949238\RMSD=3.422e-09\Dipole=0.4088868,1.5194896,-1.1899156\Quad
 rupole=-0.136882,2.5880085,-2.4511266,1.1973982,8.5195946,-0.2960579\P
 G=C01 [X(C45H56N4O5)]\\@


 DEMOCRATS BUY MOST OF THE BOOKS THAT HAVE BEEN
 BANNED; REPUBLICANS FORM CENSORSHIP COMMITTEES AND
 READ THEM AS A GROUP.
 Job cpu time:       0 days  0 hours 11 minutes 28.2 seconds.
 Elapsed time:       0 days  0 hours  1 minutes 54.9 seconds.
 File lengths (MBytes):  RWF=     67 Int=      0 D2E=      0 Chk=     10 Scr=      1
 Normal termination of Gaussian 16 at Thu May 30 10:01:05 2024.
