 Entering Gaussian System, Link 0=g16
 Input=2_pleiokomenine_2a_c_18.gjf
 Output=2_pleiokomenine_2a_c_18.log
 Initial command:
 /opt/gaussian/g16/l1.exe "/data/abenidd/Elvis/pleiokomenine_C/NMR_HF/2a/2_pleiokomenine_2a_c_18/Gau-27562.inp" -scrdir="/data/abenidd/Elvis/pleiokomenine_C/NMR_HF/2a/2_pleiokomenine_2a_c_18/"
 Entering Link 1 = /opt/gaussian/g16/l1.exe PID=     27564.
  
 Copyright (c) 1988-2017, Gaussian, Inc.  All Rights Reserved.
  
 This is part of the Gaussian(R) 16 program.  It is based on
 the Gaussian(R) 09 system (copyright 2009, Gaussian, Inc.),
 the Gaussian(R) 03 system (copyright 2003, Gaussian, Inc.),
 the Gaussian(R) 98 system (copyright 1998, Gaussian, Inc.),
 the Gaussian(R) 94 system (copyright 1995, Gaussian, Inc.),
 the Gaussian 92(TM) system (copyright 1992, Gaussian, Inc.),
 the Gaussian 90(TM) system (copyright 1990, Gaussian, Inc.),
 the Gaussian 88(TM) system (copyright 1988, Gaussian, Inc.),
 the Gaussian 86(TM) system (copyright 1986, Carnegie Mellon
 University), and the Gaussian 82(TM) system (copyright 1983,
 Carnegie Mellon University). Gaussian is a federally registered
 trademark of Gaussian, Inc.
  
 This software contains proprietary and confidential information,
 including trade secrets, belonging to Gaussian, Inc.
  
 This software is provided under written license and may be
 used, copied, transmitted, or stored only in accord with that
 written license.
  
 The following legend is applicable only to US Government
 contracts under FAR:
  
                    RESTRICTED RIGHTS LEGEND
  
 Use, reproduction and disclosure by the US Government is
 subject to restrictions as set forth in subparagraphs (a)
 and (c) of the Commercial Computer Software - Restricted
 Rights clause in FAR 52.227-19.
  
 Gaussian, Inc.
 340 Quinnipiac St., Bldg. 40, Wallingford CT 06492
  
  
 ---------------------------------------------------------------
 Warning -- This program may not be used in any manner that
 competes with the business of Gaussian, Inc. or will provide
 assistance to any competitor of Gaussian, Inc.  The licensee
 of this program is prohibited from giving any competitor of
 Gaussian, Inc. access to this program.  By using this program,
 the user acknowledges that Gaussian, Inc. is engaged in the
 business of creating and licensing software in the field of
 computational chemistry and represents and warrants to the
 licensee that it is not a competitor of Gaussian, Inc. and that
 it will not use this program in any manner prohibited above.
 ---------------------------------------------------------------
  

 Cite this work as:
 Gaussian 16, Revision B.01,
 M. J. Frisch, G. W. Trucks, H. B. Schlegel, G. E. Scuseria, 
 M. A. Robb, J. R. Cheeseman, G. Scalmani, V. Barone, 
 G. A. Petersson, H. Nakatsuji, X. Li, M. Caricato, A. V. Marenich, 
 J. Bloino, B. G. Janesko, R. Gomperts, B. Mennucci, H. P. Hratchian, 
 J. V. Ortiz, A. F. Izmaylov, J. L. Sonnenberg, D. Williams-Young, 
 F. Ding, F. Lipparini, F. Egidi, J. Goings, B. Peng, A. Petrone, 
 T. Henderson, D. Ranasinghe, V. G. Zakrzewski, J. Gao, N. Rega, 
 G. Zheng, W. Liang, M. Hada, M. Ehara, K. Toyota, R. Fukuda, 
 J. Hasegawa, M. Ishida, T. Nakajima, Y. Honda, O. Kitao, H. Nakai, 
 T. Vreven, K. Throssell, J. A. Montgomery, Jr., J. E. Peralta, 
 F. Ogliaro, M. J. Bearpark, J. J. Heyd, E. N. Brothers, K. N. Kudin, 
 V. N. Staroverov, T. A. Keith, R. Kobayashi, J. Normand, 
 K. Raghavachari, A. P. Rendell, J. C. Burant, S. S. Iyengar, 
 J. Tomasi, M. Cossi, J. M. Millam, M. Klene, C. Adamo, R. Cammi, 
 J. W. Ochterski, R. L. Martin, K. Morokuma, O. Farkas, 
 J. B. Foresman, and D. J. Fox, Gaussian, Inc., Wallingford CT, 2016.
 
 ******************************************
 Gaussian 16:  ES64L-G16RevB.01 20-Dec-2017
                30-May-2024 
 ******************************************
 %nprocshared=8
 Will use up to    8 processors via shared memory.
 ----------------------------------------------
 # nmr=giao hf/sto-3g pop=nbo geom=connectivity
 ----------------------------------------------
 1/38=1,57=2,172=1/1;
 2/12=2,17=6,18=5,40=1/2;
 3/6=3,11=9,25=1,30=1/1,2,3,8;
 4//1;
 5/5=2,38=5/2;
 8/6=1,10=90,11=11/1;
 10/13=100,45=16/2;
 6/7=2,8=2,9=2,10=2,28=1,40=1,64=1/1,7;
 99/9=1/99;
 -----------------
 Pleiokomenine_C_2
 -----------------
 Symbolic Z-matrix:
 Charge =  0 Multiplicity = 1
 C                     0.        0.        0. 
 C                     1.4016    0.        0. 
 C                     2.0809    1.237     0. 
 C                     1.3855    2.4556   -0.0378 
 C                     0.0025    2.4396   -0.0827 
 C                    -0.6729    1.2104   -0.0463 
 N                    -0.8911    3.5397   -0.1756 
 C                    -2.1577    1.4657   -0.0074 
 C                    -2.1354    2.8961   -0.6753 
 C                    -3.1194    0.5563   -0.7873 
 C                    -2.034     2.7246   -2.2544 
 C                    -3.2519    1.9781   -2.8133 
 C                    -4.0935    1.4414   -1.6389 
 N                    -3.7408   -0.293     0.2345 
 C                    -4.9406   -0.9949   -0.2033 
 C                    -5.9443   -0.1465   -0.9829 
 C                    -5.2684    0.5893   -2.1394 
 C                    -2.5873    1.3078    1.4711 
 C                    -3.8752    0.4938    1.4516 
 C                    -4.6145    2.714    -0.8869 
 C                    -3.4552    3.6577   -0.4624 
 C                    -3.6839    4.2692    0.9084 
 O                    -4.4892    3.8603    1.7359 
 O                    -2.9244    5.389     1.0692 
 C                    -3.0583    6.0083    2.3481 
 C                    -0.3727    4.754    -0.7863 
 C                     2.1841   -1.2964    0.073 
 C                     1.6785   -2.3833   -0.8547 
 C                     0.7338   -3.3132   -0.396 
 C                     2.0834   -2.4076   -2.2072 
 C                     1.5686   -3.3508   -3.106 
 C                     0.6339   -4.2613   -2.6506 
 C                     0.2056   -4.215    -1.3045 
 N                    -0.0003   -5.3114   -3.37 
 C                    -0.945    -5.1865   -1.1579 
 C                    -0.4734   -6.1872   -2.2692 
 C                    -1.1895   -5.9913    0.1061 
 C                     0.808    -7.01     -1.7288 
 C                     0.5367   -7.6674   -0.3723 
 C                    -0.9524   -7.5033   -0.0265 
 N                    -2.6257   -5.7035    0.5094 
 C                    -2.7966   -6.1242    1.9306 
 C                    -2.5809   -7.6494    2.0123 
 C                    -1.2815   -8.1521    1.3407 
 C                    -2.2019   -4.2717   -1.2601 
 C                    -2.7586   -4.2641    0.176 
 C                    -1.7182   -8.1289   -1.2435 
 C                    -1.4909   -7.3128   -2.5682 
 C                    -2.8035   -6.996    -3.2672 
 O                    -3.7599   -7.7652   -3.2867 
 O                    -2.7405   -5.8593   -4.0072 
 C                    -3.9425   -5.5475   -4.7095 
 C                     0.6775   -5.8493   -4.5345 
 O                    -3.5833   -6.3465   -0.2319 
 H                    -0.5718   -0.9209    0.0438 
 H                     3.1684    1.2601    0.0304 
 H                     1.9383    3.3879   -0.0372 
 H                    -2.5665   -0.1095   -1.4642 
 H                    -1.9632    3.7038   -2.7452 
 H                    -1.1233    2.1874   -2.5472 
 H                    -3.8479    2.6515   -3.4421 
 H                    -2.916     1.1642   -3.4678 
 H                    -4.6214   -1.8207   -0.852 
 H                    -5.4379   -1.4705    0.6508 
 H                    -6.7324   -0.796    -1.3818 
 H                    -6.4395    0.5637   -0.312 
 H                    -4.9094   -0.1506   -2.8666 
 H                    -6.0046    1.2103   -2.6634 
 H                    -1.8472    0.7261    2.0398 
 H                    -2.6852    2.2458    2.0159 
 H                    -3.9402   -0.1504    2.335 
 H                    -4.7556    1.1385    1.4544 
 H                    -5.2529    2.4436   -0.0457 
 H                    -5.2776    3.2787   -1.5582 
 H                    -3.4898    4.5185   -1.1481 
 H                    -4.0779    6.3808    2.4868 
 H                    -2.3708    6.8578    2.3864 
 H                    -2.7878    5.3088    3.1454 
 H                     0.1044    4.5577   -1.7531 
 H                     0.3586    5.2316   -0.1254 
 H                    -1.1756    5.4791   -0.9507 
 H                     3.241    -1.1128   -0.1608 
 H                     2.1673   -1.6547    1.1105 
 H                     0.3783   -3.2758    0.6284 
 H                     2.7955   -1.6696   -2.5718 
 H                     1.8938   -3.344    -4.1397 
 H                    -0.5739   -5.582     0.9211 
 H                     1.7107   -6.3931   -1.642 
 H                     1.0768   -7.7864   -2.4585 
 H                     0.8239   -8.7256   -0.4044 
 H                     1.1681   -7.2001    0.3943 
 H                    -3.8124   -5.8439    2.2282 
 H                    -2.0709   -5.5691    2.5338 
 H                    -3.4292   -8.1591    1.5384 
 H                    -2.5892   -7.959     3.0637 
 H                    -1.3196   -9.2438    1.2436 
 H                    -0.4601   -7.9377    2.038 
 H                    -2.0135   -3.2451   -1.5957 
 H                    -2.954    -4.6845   -1.9324 
 H                    -3.8119   -3.9781    0.2419 
 H                    -2.1464   -3.6921    0.8801 
 H                    -2.7767   -8.2891   -1.0264 
 H                    -1.3335   -9.1465   -1.407 
 H                    -1.0171   -8.001    -3.2854 
 H                    -4.7844   -5.4575   -4.0156 
 H                    -3.8028   -4.5841   -5.2075 
 H                    -4.146    -6.3054   -5.4722 
 H                     0.7409   -5.0951   -5.3262 
 H                     0.1163   -6.6934   -4.9472 
 H                     1.6898   -6.1948   -4.2985 
 
 Stoichiometry    C45H56N4O5
 Framework group  C1[X(C45H56N4O5)]
 Deg. of freedom   324
 Full point group                 C1      NOp   1
 Largest Abelian subgroup         C1      NOp   1
 Largest concise Abelian subgroup C1      NOp   1
                         Standard orientation:                         
 ---------------------------------------------------------------------
 Center     Atomic      Atomic             Coordinates (Angstroms)
 Number     Number       Type             X           Y           Z
 ---------------------------------------------------------------------
      1          6           0        1.791892    1.896282   -0.686593
      2          6           0        1.625526    3.280578   -0.829876
      3          6           0        2.757693    4.115843   -0.719653
      4          6           0        4.029056    3.594072   -0.434371
      5          6           0        4.170477    2.229747   -0.251127
      6          6           0        3.051211    1.396350   -0.396437
      7          7           0        5.340532    1.501052    0.091429
      8          6           0        3.483866   -0.039427   -0.245850
      9          6           0        4.778750    0.228072    0.616908
     10          6           0        2.583940   -1.045358    0.487879
     11          6           0        4.350600    0.436481    2.135626
     12          6           0        3.675501   -0.819183    2.701719
     13          6           0        3.433616   -1.819162    1.554074
     14          7           0        1.985471   -1.856723   -0.577506
     15          6           0        1.370968   -3.098635   -0.125960
     16          6           0        2.199483   -3.912525    0.867076
     17          6           0        2.659051   -3.051233    2.042962
     18          6           0        3.612220   -0.607400   -1.679859
     19          6           0        2.963955   -1.985932   -1.647238
     20          6           0        4.861247   -2.227055    1.052128
     21          6           0        5.715538   -0.991913    0.652931
     22          6           0        6.557480   -1.250304   -0.583878
     23          8           0        6.382112   -2.168662   -1.375287
     24          8           0        7.590471   -0.364745   -0.657120
     25          6           0        8.414376   -0.520843   -1.812049
     26          6           0        6.373641    2.225068    0.815793
     27          6           0        0.273074    3.875115   -1.170002
     28          6           0       -0.878226    3.308337   -0.363231
     29          6           0       -1.605768    2.213684   -0.853125
     30          6           0       -1.162498    3.817250    0.922843
     31          6           0       -2.167279    3.258079    1.722986
     32          6           0       -2.877506    2.176155    1.238135
     33          6           0       -2.569892    1.647584   -0.036053
     34          7           0       -3.944752    1.469966    1.858410
     35          6           0       -3.362790    0.369947   -0.203803
     36          6           0       -4.574399    0.794993    0.696272
     37          6           0       -3.924333   -0.083360   -1.539603
     38          6           0       -5.448339    1.906406   -0.086037
     39          6           0       -5.847659    1.438538   -1.488718
     40          6           0       -5.455716   -0.039072   -1.652958
     41          7           0       -3.408360   -1.497059   -1.747870
     42          6           0       -3.577369   -1.839687   -3.190106
     43          6           0       -5.085501   -1.836073   -3.514083
     44          6           0       -5.838064   -0.563771   -3.059011
     45          6           0       -2.332747   -0.741411    0.158132
     46          6           0       -2.033703   -1.409407   -1.197121
     47          6           0       -6.169286   -0.777540   -0.467885
     48          6           0       -5.604155   -0.334683    0.931049
     49          6           0       -5.247517   -1.530978    1.799133
     50          8           0       -5.891207   -2.576150    1.804373
     51          8           0       -4.256739   -1.256319    2.686025
     52          6           0       -3.918650   -2.343770    3.545324
     53          6           0       -4.735445    2.164571    2.856978
     54          8           0       -4.041524   -2.466749   -1.013854
     55          1           0        0.963759    1.205553   -0.804997
     56          1           0        2.656031    5.190463   -0.857388
     57          1           0        4.877594    4.263866   -0.356063
     58          1           0        1.759244   -0.531569    1.000791
     59          1           0        5.225166    0.677237    2.753607
     60          1           0        3.669833    1.288862    2.252646
     61          1           0        4.307727   -1.266172    3.479256
     62          1           0        2.734877   -0.541252    3.193260
     63          1           0        0.421570   -2.839260    0.359853
     64          1           0        1.097823   -3.723865   -0.984720
     65          1           0        1.593595   -4.744086    1.245864
     66          1           0        3.059919   -4.362929    0.360618
     67          1           0        1.776821   -2.734622    2.614434
     68          1           0        3.273000   -3.652351    2.724087
     69          1           0        3.043358   -0.000919   -2.399664
     70          1           0        4.629040   -0.624678   -2.069750
     71          1           0        2.478797   -2.209032   -2.603513
     72          1           0        3.700981   -2.770038   -1.466353
     73          1           0        4.804010   -2.963309    0.250291
     74          1           0        5.388190   -2.751231    1.862561
     75          1           0        6.455925   -0.854812    1.456291
     76          1           0        8.922392   -1.489874   -1.790208
     77          1           0        9.171666    0.267858   -1.796637
     78          1           0        7.821657   -0.412786   -2.725922
     79          1           0        5.972732    2.750429    1.689937
     80          1           0        6.858876    2.955948    0.160010
     81          1           0        7.154040    1.542063    1.164974
     82          1           0        0.290916    4.962763   -1.021298
     83          1           0        0.086700    3.724818   -2.241330
     84          1           0       -1.366039    1.782529   -1.819463
     85          1           0       -0.580716    4.648869    1.316040
     86          1           0       -2.361537    3.665952    2.707994
     87          1           0       -3.468130    0.511386   -2.345128
     88          1           0       -4.937026    2.872721   -0.174138
     89          1           0       -6.356041    2.129289    0.491815
     90          1           0       -6.924285    1.584261   -1.640185
     91          1           0       -5.344066    2.060611   -2.239804
     92          1           0       -3.135248   -2.830402   -3.338420
     93          1           0       -3.024546   -1.099253   -3.777278
     94          1           0       -5.558955   -2.702293   -3.035029
     95          1           0       -5.222954   -1.972659   -4.592886
     96          1           0       -6.919129   -0.738389   -3.118122
     97          1           0       -5.615857    0.218106   -3.798054
     98          1           0       -1.401296   -0.391089    0.618243
     99          1           0       -2.753772   -1.483279    0.836671
    100          1           0       -1.617926   -2.417173   -1.112757
    101          1           0       -1.434994   -0.787200   -1.869531
    102          1           0       -6.166619   -1.862273   -0.596593
    103          1           0       -7.238314   -0.519222   -0.494112
    104          1           0       -6.447752    0.101351    1.488454
    105          1           0       -3.621515   -3.220903    2.961595
    106          1           0       -3.068883   -2.036466    4.161053
    107          1           0       -4.757335   -2.582159    4.206621
    108          1           0       -4.127849    2.393095    3.739152
    109          1           0       -5.561224    1.532399    3.197887
    110          1           0       -5.157282    3.098883    2.471064
 ---------------------------------------------------------------------
 Rotational constants (GHZ):           0.0989221           0.0317988           0.0293685
 Standard basis: STO-3G (5D, 7F)
 There are   326 symmetry adapted cartesian basis functions of A   symmetry.
 There are   326 symmetry adapted basis functions of A   symmetry.
   326 basis functions,   978 primitive gaussians,   326 cartesian basis functions
   197 alpha electrons      197 beta electrons
       nuclear repulsion energy      8130.6985133444 Hartrees.
 NAtoms=  110 NActive=  110 NUniq=  110 SFac= 1.00D+00 NAtFMM=   60 NAOKFM=T Big=T
 Integral buffers will be    131072 words long.
 Raffenetti 1 integral format.
 Two-electron integral symmetry is turned on.
 One-electron integrals computed using PRISM.
 NBasis=   326 RedAO= T EigKep=  1.72D-01  NBF=   326
 NBsUse=   326 1.00D-06 EigRej= -1.00D+00 NBFU=   326
 ExpMin= 1.69D-01 ExpMax= 1.31D+02 ExpMxC= 1.31D+02 IAcc=3 IRadAn=         5 AccDes= 0.00D+00
 Harris functional with IExCor=  205 and IRadAn=       5 diagonalized for initial guess.
 HarFok:  IExCor=  205 AccDes= 0.00D+00 IRadAn=         5 IDoV= 1 UseB2=F ITyADJ=14
 ICtDFT=  3500011 ScaDFX=  1.000000  1.000000  1.000000  1.000000
 FoFCou: FMM=F IPFlag=           0 FMFlag=      100000 FMFlg1=        2001
         NFxFlg=           0 DoJE=T BraDBF=F KetDBF=T FulRan=T
         wScrn=  0.000000 ICntrl=       500 IOpCl=  0 I1Cent=   200000004 NGrid=           0
         NMat0=    1 NMatS0=      1 NMatT0=    0 NMatD0=    1 NMtDS0=    0 NMtDT0=    0
 Petite list used in FoFCou.
 Requested convergence on RMS density matrix=1.00D-08 within 128 cycles.
 Requested convergence on MAX density matrix=1.00D-06.
 Requested convergence on             energy=1.00D-06.
 No special actions if energy rises.
 Integral accuracy reduced to 1.0D-05 until final iterations.
 Initial convergence to 1.0D-05 achieved.  Increase integral accuracy.
 SCF Done:  E(RHF) =  -2300.19871886     A.U. after   16 cycles
            NFock= 16  Conv=0.40D-08     -V/T= 2.0093
 Range of M.O.s used for correlation:     1   326
 NBasis=   326 NAE=   197 NBE=   197 NFC=     0 NFV=     0
 NROrb=    326 NOA=   197 NOB=   197 NVA=   129 NVB=   129
          Differentiating once with respect to magnetic field using GIAOs.
          Electric field/nuclear overlap derivatives assumed to be zero.
 FoFCou: FMM=F IPFlag=           0 FMFlag=      100000 FMFlg1=        2001
         NFxFlg=           0 DoJE=F BraDBF=F KetDBF=T FulRan=T
         wScrn=  0.000000 ICntrl=      6100 IOpCl=  0 I1Cent=           7 NGrid=         110
         NMat0=    1 NMatS0=      1 NMatT0=    0 NMatD0=    1 NMtDS0=    0 NMtDT0=    0
 Symmetry not used in FoFCou.
 FoFJK:  IHMeth= 1 ICntrl=    6127 DoSepK=F KAlg= 0 I1Cent=           0 FoldK=F
 IRaf=         1 NMat=       1 IRICut=       1 DoRegI=T DoRafI=F ISym2E= 0 IDoP0=0 IntGTp=1.
          There are     3 degrees of freedom in the 1st order CPHF.  IDoFFX=0 NUNeed=     3.
      3 vectors produced by pass  0 Test12= 8.47D-13 3.33D-08 XBig12= 1.82D+02 2.46D+00.
 AX will form     3 AO Fock derivatives at one time.
      3 vectors produced by pass  1 Test12= 8.47D-13 3.33D-08 XBig12= 8.45D-01 2.99D-01.
      3 vectors produced by pass  2 Test12= 8.47D-13 3.33D-08 XBig12= 1.88D-02 3.80D-02.
      3 vectors produced by pass  3 Test12= 8.47D-13 3.33D-08 XBig12= 4.29D-04 5.90D-03.
      3 vectors produced by pass  4 Test12= 8.47D-13 3.33D-08 XBig12= 1.69D-05 1.03D-03.
      3 vectors produced by pass  5 Test12= 8.47D-13 3.33D-08 XBig12= 3.23D-07 9.09D-05.
      3 vectors produced by pass  6 Test12= 8.47D-13 3.33D-08 XBig12= 1.21D-08 2.23D-05.
      3 vectors produced by pass  7 Test12= 8.47D-13 3.33D-08 XBig12= 4.18D-10 3.31D-06.
      3 vectors produced by pass  8 Test12= 8.47D-13 3.33D-08 XBig12= 6.45D-12 3.11D-07.
      2 vectors produced by pass  9 Test12= 8.47D-13 3.33D-08 XBig12= 1.10D-13 5.29D-08.
 InvSVY:  IOpt=1 It=  1 EMax= 3.55D-15
 Solved reduced A of dimension    29 with     3 vectors.
 Calculating GIAO nuclear magnetic shielding tensors.
 SCF GIAO Magnetic shielding tensor (ppm):
      1  C    Isotropic =   125.1931   Anisotropy =   152.1320
   XX=    76.3903   YX=   -38.3127   ZX=   -27.0439
   XY=   -43.9585   YY=    79.7572   ZY=     3.4711
   XZ=   -34.3106   YZ=     2.0431   ZZ=   219.4317
   Eigenvalues:    34.6121   114.3527   226.6144
      2  C    Isotropic =   120.5403   Anisotropy =   156.1474
   XX=    59.8133   YX=    21.7842   ZX=   -34.3923
   XY=    14.3094   YY=    86.8940   ZY=    15.6622
   XZ=   -41.3400   YZ=    16.2318   ZZ=   214.9137
   Eigenvalues:    41.1126    95.8698   224.6386
      3  C    Isotropic =   119.1388   Anisotropy =   149.1936
   XX=   113.9397   YX=     6.4874   ZX=   -19.9310
   XY=     7.7606   YY=    32.4794   ZY=    21.7892
   XZ=   -25.9562   YZ=    25.0547   ZZ=   210.9974
   Eigenvalues:    28.2541   110.5612   218.6012
      4  C    Isotropic =   133.6427   Anisotropy =   142.0211
   XX=    83.9218   YX=   -38.6326   ZX=   -22.4300
   XY=   -30.7915   YY=    93.3575   ZY=     9.0213
   XZ=   -23.3653   YZ=     2.9617   ZZ=   223.6489
   Eigenvalues:    52.5401   120.0646   228.3235
      5  C    Isotropic =   109.2416   Anisotropy =   126.5999
   XX=    54.1076   YX=    19.6938   ZX=   -32.6554
   XY=     6.5444   YY=    87.1307   ZY=    13.0600
   XZ=   -28.9882   YZ=     4.8215   ZZ=   186.4864
   Eigenvalues:    42.3998    91.6835   193.6415
      6  C    Isotropic =   117.6981   Anisotropy =   138.6153
   XX=    95.3330   YX=    -4.3529   ZX=   -19.1609
   XY=     2.1057   YY=    51.4126   ZY=    15.4405
   XZ=   -11.2001   YZ=    17.6081   ZZ=   206.3486
   Eigenvalues:    49.6647    93.3213   210.1083
      7  N    Isotropic =   273.7945   Anisotropy =    81.7082
   XX=   279.5669   YX=   -22.5594   ZX=    22.1235
   XY=   -40.2883   YY=   278.3898   ZY=   -33.8928
   XZ=    15.7059   YZ=   -24.2040   ZZ=   263.4267
   Eigenvalues:   239.8811   253.2357   328.2666
      8  C    Isotropic =   196.2200   Anisotropy =    14.6020
   XX=   201.8280   YX=     4.5138   ZX=    -4.3499
   XY=     8.8970   YY=   195.0578   ZY=     1.3857
   XZ=    -0.2863   YZ=     6.4123   ZZ=   191.7743
   Eigenvalues:   186.7977   195.9077   205.9547
      9  C    Isotropic =   181.0826   Anisotropy =    45.1924
   XX=   187.1858   YX=    18.7009   ZX=    -2.8438
   XY=    13.1316   YY=   197.6095   ZY=    -7.8951
   XZ=     8.2701   YZ=   -21.0255   ZZ=   158.4524
   Eigenvalues:   151.8671   180.1698   211.2109
     10  C    Isotropic =   190.1505   Anisotropy =    28.9234
   XX=   181.1600   YX=    13.4107   ZX=     8.4064
   XY=     9.3790   YY=   195.9454   ZY=     7.9979
   XZ=     5.2051   YZ=     9.1892   ZZ=   193.3459
   Eigenvalues:   174.7243   186.2943   209.4327
     11  C    Isotropic =   213.8538   Anisotropy =    18.5890
   XX=   207.5958   YX=    -0.8508   ZX=    -6.8318
   XY=     4.9104   YY=   209.3569   ZY=     0.2673
   XZ=    -4.0360   YZ=     2.8262   ZZ=   224.6085
   Eigenvalues:   204.7627   210.5522   226.2464
     12  C    Isotropic =   212.9691   Anisotropy =    20.5114
   XX=   207.3920   YX=     5.3827   ZX=     1.9712
   XY=     4.5154   YY=   216.6554   ZY=    10.8167
   XZ=     1.3124   YZ=     8.4867   ZZ=   214.8598
   Eigenvalues:   204.0732   208.1907   226.6433
     13  C    Isotropic =   213.7360   Anisotropy =     7.8781
   XX=   214.6126   YX=    -1.2486   ZX=    -6.1991
   XY=     0.1294   YY=   212.7870   ZY=    -1.8696
   XZ=    -2.5659   YZ=    -3.6528   ZZ=   213.8084
   Eigenvalues:   208.4095   213.8104   218.9881
     14  N    Isotropic =   302.1166   Anisotropy =    52.2664
   XX=   292.7505   YX=    45.7168   ZX=   -26.3939
   XY=    28.4299   YY=   296.7218   ZY=    27.2542
   XZ=   -15.6232   YZ=    27.2073   ZZ=   316.8775
   Eigenvalues:   242.1025   327.2864   336.9609
     15  C    Isotropic =   205.2575   Anisotropy =    32.0341
   XX=   207.4272   YX=    10.9838   ZX=     0.1204
   XY=    14.7264   YY=   214.4374   ZY=   -12.5006
   XZ=     1.2637   YZ=   -10.0089   ZZ=   193.9080
   Eigenvalues:   186.8831   202.2759   226.6136
     16  C    Isotropic =   224.3848   Anisotropy =     8.7071
   XX=   224.8887   YX=     4.6686   ZX=     5.0481
   XY=     0.0404   YY=   224.1044   ZY=     1.5948
   XZ=     4.9241   YZ=    -0.8306   ZZ=   224.1611
   Eigenvalues:   219.1434   223.8215   230.1895
     17  C    Isotropic =   215.3982   Anisotropy =    19.0338
   XX=   215.8745   YX=     6.9858   ZX=     0.2268
   XY=    11.2951   YY=   220.8696   ZY=    -1.1583
   XZ=    -2.9601   YZ=    -2.0745   ZZ=   209.4504
   Eigenvalues:   208.8648   209.2424   228.0874
     18  C    Isotropic =   210.6700   Anisotropy =    36.3604
   XX=   190.2642   YX=     1.6714   ZX=    -1.6342
   XY=     8.0472   YY=   219.4971   ZY=    11.9038
   XZ=     0.9522   YZ=    15.6236   ZZ=   222.2487
   Eigenvalues:   189.2404   207.8594   234.9103
     19  C    Isotropic =   199.8798   Anisotropy =    42.6799
   XX=   198.9767   YX=     9.9456   ZX=   -26.3014
   XY=    13.0082   YY=   191.7558   ZY=     4.4765
   XZ=   -20.2247   YZ=     2.4302   ZZ=   208.9068
   Eigenvalues:   173.3335   197.9728   228.3331
     20  C    Isotropic =   212.1685   Anisotropy =    22.1085
   XX=   222.4022   YX=    -1.2797   ZX=    -9.2612
   XY=     0.1756   YY=   209.3006   ZY=    -5.1269
   XZ=   -10.1492   YZ=    -6.4190   ZZ=   204.8027
   Eigenvalues:   197.8348   211.7632   226.9075
     21  C    Isotropic =   209.0854   Anisotropy =    10.5167
   XX=   209.1379   YX=    -2.9929   ZX=    -4.4085
   XY=    -9.3324   YY=   208.4049   ZY=     0.0875
   XZ=    -6.6422   YZ=    -5.6513   ZZ=   209.7133
   Eigenvalues:   199.2702   211.8894   216.0965
     22  C    Isotropic =    96.4029   Anisotropy =    98.6620
   XX=    37.1285   YX=   -42.3684   ZX=    81.0417
   XY=   -53.5864   YY=   143.3770   ZY=    37.4073
   XZ=    66.6493   YZ=    23.1961   ZZ=   108.7033
   Eigenvalues:   -27.9399   154.9711   162.1776
     23  O    Isotropic =  -134.9091   Anisotropy =   887.8857
   XX=   -55.8137   YX=  -296.6249   ZX=   213.0611
   XY=  -311.4900   YY=  -194.4344   ZY=  -379.9066
   XZ=   196.1043   YZ=  -376.8273   ZZ=  -154.4793
   Eigenvalues:  -571.5032  -290.2389   457.0147
     24  O    Isotropic =   283.8441   Anisotropy =   140.0978
   XX=   331.2176   YX=     3.9238   ZX=    41.0869
   XY=    87.3582   YY=   331.8976   ZY=  -125.6247
   XZ=   116.8427   YZ=   -26.7334   ZZ=   188.4170
   Eigenvalues:   117.1065   357.1831   377.2426
     25  C    Isotropic =   197.3608   Anisotropy =    57.6891
   XX=   202.0953   YX=    -2.6367   ZX=   -28.0183
   XY=    -2.8858   YY=   177.8283   ZY=     2.3172
   XZ=   -27.9683   YZ=     3.0144   ZZ=   212.1589
   Eigenvalues:   177.4436   178.8187   235.8203
     26  C    Isotropic =   209.9059   Anisotropy =    41.8225
   XX=   221.2129   YX=    14.1456   ZX=    12.1683
   XY=    16.0386   YY=   205.3756   ZY=    10.7627
   XZ=    11.4318   YZ=    12.0300   ZZ=   203.1292
   Eigenvalues:   192.6487   199.2814   237.7876
     27  C    Isotropic =   206.6425   Anisotropy =    19.1542
   XX=   217.9002   YX=     3.1004   ZX=    -6.5693
   XY=     1.3338   YY=   203.7442   ZY=    -6.1709
   XZ=    -1.2966   YZ=    -5.5576   ZZ=   198.2832
   Eigenvalues:   194.3429   206.1726   219.4120
     28  C    Isotropic =   119.3107   Anisotropy =   161.4971
   XX=   115.6117   YX=   -74.7192   ZX=    60.1831
   XY=   -67.6462   YY=   140.1454   ZY=   -30.7842
   XZ=    53.5706   YZ=   -22.3224   ZZ=   102.1751
   Eigenvalues:    39.3256    91.6311   226.9755
     29  C    Isotropic =   126.6105   Anisotropy =   147.5934
   XX=   165.4168   YX=   -35.0307   ZX=    52.3488
   XY=   -31.7883   YY=   142.2522   ZY=   -67.8400
   XZ=    40.8277   YZ=   -52.5865   ZZ=    72.1626
   Eigenvalues:    32.5952   122.2303   225.0062
     30  C    Isotropic =   118.9690   Anisotropy =   156.0927
   XX=   128.0067   YX=   -88.4959   ZX=    18.7146
   XY=   -77.9654   YY=   112.7405   ZY=   -48.1532
   XZ=     8.4659   YZ=   -53.3100   ZZ=   116.1597
   Eigenvalues:    26.5862   107.2900   223.0308
     31  C    Isotropic =   133.6708   Anisotropy =   144.4290
   XX=   169.8779   YX=   -39.3692   ZX=    42.2913
   XY=   -44.4115   YY=   151.7802   ZY=   -47.6012
   XZ=    37.3362   YZ=   -52.8621   ZZ=    79.3543
   Eigenvalues:    50.8218   120.2338   229.9568
     32  C    Isotropic =   108.1381   Anisotropy =   131.1932
   XX=   119.9322   YX=   -47.8184   ZX=    49.9350
   XY=   -58.9833   YY=   115.4753   ZY=   -22.6461
   XZ=    58.8371   YZ=    -7.6377   ZZ=    89.0067
   Eigenvalues:    40.3026    88.5113   195.6002
     33  C    Isotropic =   117.0617   Anisotropy =   143.7240
   XX=   147.0139   YX=   -65.2538   ZX=    28.9410
   XY=   -67.1988   YY=   104.2060   ZY=   -33.5991
   XZ=    23.5699   YZ=   -44.9178   ZZ=    99.9651
   Eigenvalues:    48.9469    89.3605   212.8777
     34  N    Isotropic =   271.9323   Anisotropy =    83.8709
   XX=   309.8260   YX=    24.7452   ZX=    -8.9749
   XY=    42.3466   YY=   261.4203   ZY=   -13.5022
   XZ=    -0.6274   YZ=    -4.7458   ZZ=   244.5504
   Eigenvalues:   238.0632   249.8874   327.8462
     35  C    Isotropic =   200.5527   Anisotropy =    12.9064
   XX=   193.9279   YX=    -4.0785   ZX=    -3.8877
   XY=    -3.4991   YY=   199.0020   ZY=     4.2904
   XZ=    -1.2195   YZ=    -5.4174   ZZ=   208.7282
   Eigenvalues:   191.5353   200.9659   209.1569
     36  C    Isotropic =   178.7524   Anisotropy =    38.1878
   XX=   173.0515   YX=    19.4530   ZX=    -5.1717
   XY=     5.0657   YY=   167.0891   ZY=    13.0692
   XZ=     3.6314   YZ=    19.8366   ZZ=   196.1167
   Eigenvalues:   152.9654   179.0809   204.2110
     37  C    Isotropic =   183.7322   Anisotropy =    42.8669
   XX=   176.9486   YX=   -17.0310   ZX=     5.4651
   XY=   -22.4756   YY=   200.3714   ZY=     9.5372
   XZ=     9.9976   YZ=    10.6294   ZZ=   173.8767
   Eigenvalues:   157.2317   181.6548   212.3101
     38  C    Isotropic =   210.8152   Anisotropy =    24.1748
   XX=   211.2059   YX=    -6.2031   ZX=     9.9146
   XY=    -9.6457   YY=   213.8234   ZY=    -1.5503
   XZ=     9.8532   YZ=   -10.5123   ZZ=   207.4163
   Eigenvalues:   199.2307   206.2831   226.9317
     39  C    Isotropic =   212.5981   Anisotropy =    20.2518
   XX=   203.3177   YX=    -4.0954   ZX=    -1.0737
   XY=    -3.5779   YY=   224.2987   ZY=     2.4828
   XZ=     1.8624   YZ=     6.2225   ZZ=   210.1778
   Eigenvalues:   202.4484   209.2465   226.0992
     40  C    Isotropic =   211.3644   Anisotropy =    11.9373
   XX=   211.2858   YX=     2.7310   ZX=     5.9281
   XY=     2.1428   YY=   208.7207   ZY=     2.2614
   XZ=     5.4914   YZ=     1.0971   ZZ=   214.0868
   Eigenvalues:   206.3541   208.4166   219.3226
     41  N    Isotropic =   235.2338   Anisotropy =    22.5254
   XX=   239.4333   YX=     6.2936   ZX=    -9.5473
   XY=     0.0693   YY=   245.0917   ZY=     9.8047
   XZ=   -20.8319   YZ=   -12.3088   ZZ=   221.1763
   Eigenvalues:   212.5762   242.8744   250.2507
     42  C    Isotropic =   193.7773   Anisotropy =    50.2764
   XX=   181.7970   YX=    -0.6838   ZX=     8.1383
   XY=     0.1560   YY=   176.2983   ZY=    15.0891
   XZ=     3.7373   YZ=    10.8591   ZZ=   223.2366
   Eigenvalues:   172.5992   181.4378   227.2949
     43  C    Isotropic =   219.1895   Anisotropy =    11.4155
   XX=   224.2251   YX=    -3.3084   ZX=     4.3199
   XY=    -4.8319   YY=   217.7495   ZY=     6.8621
   XZ=     6.3680   YZ=     8.9365   ZZ=   215.5940
   Eigenvalues:   206.2048   224.5639   226.7999
     44  C    Isotropic =   214.7145   Anisotropy =    22.7059
   XX=   206.7921   YX=    -1.0556   ZX=     8.3209
   XY=    -1.3948   YY=   213.7141   ZY=     9.3481
   XZ=     4.6486   YZ=     8.1424   ZZ=   223.6373
   Eigenvalues:   202.6882   211.6036   229.8518
     45  C    Isotropic =   206.2001   Anisotropy =    36.1460
   XX=   206.9303   YX=   -21.0323   ZX=     5.7025
   XY=   -19.7284   YY=   212.1068   ZY=    10.4236
   XZ=    12.1420   YZ=    11.8773   ZZ=   199.5631
   Eigenvalues:   179.2007   209.1021   230.2974
     46  C    Isotropic =   190.3810   Anisotropy =    57.0653
   XX=   218.9240   YX=    -7.8144   ZX=    19.5170
   XY=     0.8047   YY=   174.1294   ZY=     9.0151
   XZ=    24.0506   YZ=    16.1111   ZZ=   178.0895
   Eigenvalues:   158.1639   184.5546   228.4245
     47  C    Isotropic =   211.0454   Anisotropy =    24.2037
   XX=   204.7676   YX=     7.6793   ZX=     0.1599
   XY=     7.5999   YY=   202.9697   ZY=    -6.2678
   XZ=     1.4479   YZ=    -6.5907   ZZ=   225.3989
   Eigenvalues:   195.2059   210.7491   227.1812
     48  C    Isotropic =   207.5523   Anisotropy =    11.4097
   XX=   204.6486   YX=     2.0848   ZX=     0.9661
   XY=     0.2814   YY=   210.9232   ZY=    -9.1131
   XZ=     0.4065   YZ=    -2.5196   ZZ=   207.0853
   Eigenvalues:   202.2281   205.2701   215.1588
     49  C    Isotropic =    98.4515   Anisotropy =   103.6339
   XX=    95.7769   YX=    46.8621   ZX=   -88.8375
   XY=    34.0579   YY=   144.7008   ZY=    36.4330
   XZ=   -75.0852   YZ=    54.4999   ZZ=    54.8768
   Eigenvalues:   -30.2437   158.0574   167.5408
     50  O    Isotropic =  -132.8669   Anisotropy =   875.3216
   XX=   -52.4842   YX=  -290.8600   ZX=  -327.8232
   XY=  -316.4424   YY=  -376.4656   ZY=   168.2613
   XZ=  -320.8756   YZ=   177.8881   ZZ=    30.3490
   Eigenvalues:  -559.4964  -289.7852   450.6808
     51  O    Isotropic =   286.4653   Anisotropy =   131.7964
   XX=   364.7284   YX=   -51.6076   ZX=    36.7418
   XY=    50.8493   YY=   178.3852   ZY=   140.9010
   XZ=   -19.1984   YZ=    57.8120   ZZ=   316.2823
   Eigenvalues:   126.3159   358.7504   374.3295
     52  C    Isotropic =   197.5653   Anisotropy =    57.0986
   XX=   182.4593   YX=   -11.7314   ZX=     8.4144
   XY=   -10.7082   YY=   207.6779   ZY=   -26.5983
   XZ=     8.3928   YZ=   -26.8533   ZZ=   202.5589
   Eigenvalues:   177.2222   179.8428   235.6311
     53  C    Isotropic =   210.7445   Anisotropy =    42.1477
   XX=   206.6122   YX=   -11.9437   ZX=   -15.8733
   XY=   -10.5043   YY=   206.0402   ZY=    12.9548
   XZ=   -16.6637   YZ=    11.4519   ZZ=   219.5811
   Eigenvalues:   194.2321   199.1585   238.8430
     54  O    Isotropic =    79.0267   Anisotropy =   397.2267
   XX=    16.0206   YX=   127.9971   ZX=   -80.5183
   XY=   105.9042   YY=   173.5874   ZY=  -149.5829
   XZ=   -77.0551   YZ=  -171.8825   ZZ=    47.4721
   Eigenvalues:   -62.1602   -44.6041   343.8445
     55  H    Isotropic =    26.3926   Anisotropy =    17.1673
   XX=    33.6107   YX=    -5.1429   ZX=     0.3231
   XY=    -6.7298   YY=    28.8298   ZY=    -0.2847
   XZ=     3.0080   YZ=    -2.4399   ZZ=    16.7372
   Eigenvalues:    16.5150    24.8253    37.8374
     56  H    Isotropic =    25.6949   Anisotropy =     6.6818
   XX=    29.5380   YX=     1.5682   ZX=     1.0315
   XY=     0.9798   YY=    27.0773   ZY=    -0.6855
   XZ=     1.2552   YZ=    -0.5298   ZZ=    20.4695
   Eigenvalues:    20.2412    26.6942    30.1495
     57  H    Isotropic =    26.5413   Anisotropy =     7.8815
   XX=    28.0673   YX=    -0.6915   ZX=     1.6151
   XY=    -0.5807   YY=    31.1109   ZY=    -2.1531
   XZ=     1.2897   YZ=    -2.3366   ZZ=    20.4456
   Eigenvalues:    19.7872    28.0410    31.7956
     58  H    Isotropic =    31.9811   Anisotropy =    12.5780
   XX=    37.8664   YX=    -3.7137   ZX=    -0.8358
   XY=    -5.3863   YY=    30.9984   ZY=     2.0666
   XZ=    -2.1834   YZ=    -0.2253   ZZ=    27.0785
   Eigenvalues:    26.8332    28.7437    40.3664
     59  H    Isotropic =    32.2668   Anisotropy =    13.8313
   XX=    32.3862   YX=     5.8150   ZX=     4.7443
   XY=     5.1877   YY=    29.2414   ZY=     2.2014
   XZ=     6.3527   YZ=     1.3201   ZZ=    35.1729
   Eigenvalues:    24.6250    30.6879    41.4877
     60  H    Isotropic =    33.1530   Anisotropy =     8.6562
   XX=    30.4894   YX=    -3.7258   ZX=    -3.0015
   XY=    -4.1071   YY=    36.1731   ZY=     2.9865
   XZ=    -0.5293   YZ=     0.0073   ZZ=    32.7964
   Eigenvalues:    28.2951    32.2401    38.9238
     61  H    Isotropic =    32.4555   Anisotropy =    15.1549
   XX=    29.2677   YX=    -0.1966   ZX=     5.6332
   XY=    -0.1908   YY=    28.8340   ZY=    -3.3538
   XZ=     5.5452   YZ=    -3.6796   ZZ=    39.2649
   Eigenvalues:    26.0220    28.7858    42.5588
     62  H    Isotropic =    32.7833   Anisotropy =    12.7768
   XX=    34.5662   YX=    -1.0890   ZX=    -6.2410
   XY=    -1.6076   YY=    29.0530   ZY=     2.7604
   XZ=    -6.0832   YZ=     1.4567   ZZ=    34.7307
   Eigenvalues:    28.0118    29.0370    41.3012
     63  H    Isotropic =    32.0174   Anisotropy =    17.6608
   XX=    43.4899   YX=    -2.5202   ZX=    -1.2870
   XY=    -0.9623   YY=    27.5983   ZY=    -1.4360
   XZ=    -1.9931   YZ=    -1.9246   ZZ=    24.9640
   Eigenvalues:    23.8888    28.3721    43.7913
     64  H    Isotropic =    31.9086   Anisotropy =    13.3833
   XX=    31.1717   YX=     3.3977   ZX=     4.6717
   XY=     4.4411   YY=    32.8259   ZY=     5.0919
   XZ=     4.7914   YZ=     4.2623   ZZ=    31.7281
   Eigenvalues:    26.6542    28.2407    40.8308
     65  H    Isotropic =    32.6572   Anisotropy =    16.8333
   XX=    30.7049   YX=     6.5639   ZX=    -0.8549
   XY=     6.1667   YY=    39.3496   ZY=    -4.2011
   XZ=    -0.8860   YZ=    -4.5765   ZZ=    27.9170
   Eigenvalues:    25.7738    28.3183    43.8793
     66  H    Isotropic =    32.6032   Anisotropy =    11.7172
   XX=    33.4384   YX=    -4.3717   ZX=    -2.7375
   XY=    -3.9593   YY=    36.0919   ZY=     2.9314
   XZ=    -2.7501   YZ=     2.8020   ZZ=    28.2793
   Eigenvalues:    26.9324    30.4625    40.4147
     67  H    Isotropic =    32.7637   Anisotropy =    12.4235
   XX=    35.5489   YX=     0.7838   ZX=    -6.1688
   XY=     0.8487   YY=    28.8668   ZY=     0.0152
   XZ=    -6.2926   YZ=    -0.4523   ZZ=    33.8753
   Eigenvalues:    28.2013    29.0436    41.0460
     68  H    Isotropic =    32.5491   Anisotropy =    14.9268
   XX=    29.6207   YX=    -1.4627   ZX=     4.6144
   XY=    -1.1335   YY=    33.8600   ZY=    -7.2362
   XZ=     4.0157   YZ=    -7.2058   ZZ=    34.1667
   Eigenvalues:    25.4210    29.7261    42.5003
     69  H    Isotropic =    32.4752   Anisotropy =    10.5837
   XX=    28.3851   YX=    -2.4470   ZX=     3.1814
   XY=    -2.5743   YY=    32.7571   ZY=    -4.2673
   XZ=     4.3725   YZ=    -1.0216   ZZ=    36.2834
   Eigenvalues:    26.5227    31.3719    39.5310
     70  H    Isotropic =    32.9581   Anisotropy =    12.0761
   XX=    38.6951   YX=     0.4046   ZX=    -4.5914
   XY=    -0.3657   YY=    26.9304   ZY=     0.5403
   XZ=    -3.8305   YZ=     1.8552   ZZ=    33.2488
   Eigenvalues:    26.6475    31.2180    41.0088
     71  H    Isotropic =    31.9390   Anisotropy =    14.5975
   XX=    28.7863   YX=     2.1302   ZX=     1.9680
   XY=     2.1123   YY=    28.1349   ZY=     4.4726
   XZ=     4.2417   YZ=     4.8441   ZZ=    38.8959
   Eigenvalues:    25.9707    28.1757    41.6707
     72  H    Isotropic =    31.9786   Anisotropy =     9.8825
   XX=    32.7428   YX=    -4.1393   ZX=    -1.9440
   XY=    -4.2949   YY=    33.6387   ZY=     2.2810
   XZ=    -1.4308   YZ=     3.2703   ZZ=    29.5544
   Eigenvalues:    28.0603    29.3086    38.5669
     73  H    Isotropic =    31.4314   Anisotropy =     9.3463
   XX=    30.8831   YX=    -1.4879   ZX=    -1.3575
   XY=    -0.2857   YY=    34.1071   ZY=     4.8634
   XZ=    -1.5446   YZ=     5.2788   ZZ=    29.3039
   Eigenvalues:    25.9743    30.6576    37.6622
     74  H    Isotropic =    32.2674   Anisotropy =    14.9388
   XX=    33.6380   YX=    -4.2150   ZX=     4.6820
   XY=    -3.5855   YY=    32.7531   ZY=    -6.6287
   XZ=     4.0708   YZ=    -6.5816   ZZ=    30.4113
   Eigenvalues:    24.7615    29.8141    42.2267
     75  H    Isotropic =    31.2453   Anisotropy =    12.8723
   XX=    36.9629   YX=     1.4035   ZX=     5.1771
   XY=     0.7925   YY=    26.6521   ZY=    -1.3990
   XZ=     5.2875   YZ=     0.1238   ZZ=    30.1208
   Eigenvalues:    25.8217    28.0872    39.8268
     76  H    Isotropic =    30.5768   Anisotropy =    11.7484
   XX=    33.3735   YX=    -4.4911   ZX=    -2.8657
   XY=    -5.3935   YY=    31.7086   ZY=     1.2767
   XZ=    -3.0481   YZ=     1.5311   ZZ=    26.6484
   Eigenvalues:    25.4774    27.8440    38.4091
     77  H    Isotropic =    30.5425   Anisotropy =    12.2324
   XX=    34.9579   YX=     5.0866   ZX=    -2.8593
   XY=     4.6399   YY=    29.9519   ZY=    -0.2842
   XZ=    -3.6331   YZ=    -0.6915   ZZ=    26.7178
   Eigenvalues:    25.1284    27.8017    38.6974
     78  H    Isotropic =    30.6457   Anisotropy =     7.7392
   XX=    30.4101   YX=    -0.5357   ZX=     0.0870
   XY=    -0.1477   YY=    25.8296   ZY=    -0.7663
   XZ=    -0.9320   YZ=    -1.0116   ZZ=    35.6973
   Eigenvalues:    25.7196    30.4123    35.8051
     79  H    Isotropic =    31.9181   Anisotropy =    11.5845
   XX=    29.3731   YX=     2.3224   ZX=     0.2504
   XY=     2.2604   YY=    33.1082   ZY=     5.9753
   XZ=     2.3708   YZ=     5.6609   ZZ=    33.2729
   Eigenvalues:    27.0823    29.0308    39.6411
     80  H    Isotropic =    30.7354   Anisotropy =    14.7222
   XX=    33.0423   YX=     6.1631   ZX=    -2.3865
   XY=     6.2041   YY=    33.7428   ZY=    -3.2530
   XZ=    -1.6201   YZ=    -3.4518   ZZ=    25.4211
   Eigenvalues:    24.2329    27.4232    40.5502
     81  H    Isotropic =    30.9096   Anisotropy =    11.0148
   XX=    36.8711   YX=    -0.8290   ZX=     3.6605
   XY=    -0.2655   YY=    30.5258   ZY=     0.4391
   XZ=     4.7009   YZ=     0.0162   ZZ=    25.3320
   Eigenvalues:    23.9539    30.5221    38.2528
     82  H    Isotropic =    29.8264   Anisotropy =    12.5500
   XX=    28.3584   YX=     0.6456   ZX=    -0.4773
   XY=     2.4039   YY=    37.9406   ZY=    -0.3468
   XZ=    -2.1667   YZ=    -0.2197   ZZ=    23.1801
   Eigenvalues:    22.8617    28.4244    38.1930
     83  H    Isotropic =    30.2432   Anisotropy =     8.6837
   XX=    28.2568   YX=     1.6121   ZX=     1.4188
   XY=     2.4347   YY=    27.3636   ZY=    -1.5285
   XZ=     3.6056   YZ=    -1.6835   ZZ=    35.1093
   Eigenvalues:    24.9387    29.7586    36.0323
     84  H    Isotropic =    25.9304   Anisotropy =    11.8579
   XX=    29.2972   YX=     5.7861   ZX=    -0.7820
   XY=     5.5374   YY=    26.5525   ZY=    -1.1004
   XZ=    -0.5169   YZ=    -0.5028   ZZ=    21.9416
   Eigenvalues:    21.7198    22.2358    33.8357
     85  H    Isotropic =    25.9368   Anisotropy =     6.8960
   XX=    25.9571   YX=     1.1186   ZX=    -3.4410
   XY=     1.4955   YY=    25.4680   ZY=     2.2530
   XZ=    -4.7957   YZ=     2.9838   ZZ=    26.3851
   Eigenvalues:    20.4942    26.7820    30.5341
     86  H    Isotropic =    26.4844   Anisotropy =     7.5231
   XX=    26.9809   YX=     4.4704   ZX=    -1.0681
   XY=     4.6406   YY=    26.5597   ZY=     3.1712
   XZ=    -2.3529   YZ=     2.8988   ZZ=    25.9126
   Eigenvalues:    20.1934    27.7600    31.4998
     87  H    Isotropic =    31.6045   Anisotropy =     5.6948
   XX=    31.1989   YX=     3.2015   ZX=    -1.2375
   XY=     2.5354   YY=    30.5040   ZY=    -2.1744
   XZ=    -1.5908   YZ=    -0.5135   ZZ=    33.1106
   Eigenvalues:    27.9611    31.4515    35.4011
     88  H    Isotropic =    32.9647   Anisotropy =     8.8873
   XX=    32.1529   YX=     3.1212   ZX=     2.4333
   XY=    -0.7926   YY=    38.6793   ZY=    -0.1346
   XZ=     3.6024   YZ=    -0.3239   ZZ=    28.0617
   Eigenvalues:    26.4155    33.5889    38.8896
     89  H    Isotropic =    32.0246   Anisotropy =    13.6249
   XX=    36.1352   YX=    -5.3315   ZX=    -3.0439
   XY=    -6.6971   YY=    29.1270   ZY=     3.4622
   XZ=    -1.8887   YZ=     3.6418   ZZ=    30.8117
   Eigenvalues:    24.9583    30.0077    41.1079
     90  H    Isotropic =    32.1273   Anisotropy =    15.9849
   XX=    39.1389   YX=    -5.1791   ZX=     4.4461
   XY=    -5.9694   YY=    28.8341   ZY=    -0.0441
   XZ=     4.5186   YZ=    -0.1154   ZZ=    28.4091
   Eigenvalues:    25.0921    28.5060    42.7840
     91  H    Isotropic =    32.7927   Anisotropy =    12.0162
   XX=    28.6762   YX=     1.8355   ZX=     0.0241
   XY=    -0.0987   YY=    35.0425   ZY=    -6.4670
   XZ=     0.1620   YZ=    -5.3801   ZZ=    34.6596
   Eigenvalues:    28.1034    29.4714    40.8035
     92  H    Isotropic =    30.7695   Anisotropy =    13.4088
   XX=    29.4444   YX=    -4.8776   ZX=    -0.2521
   XY=    -4.6394   YY=    33.6824   ZY=     5.5995
   XZ=     0.1255   YZ=     7.0248   ZZ=    29.1818
   Eigenvalues:    23.3101    29.2898    39.7087
     93  H    Isotropic =    31.8878   Anisotropy =    10.2862
   XX=    31.9918   YX=     2.3094   ZX=    -3.4225
   XY=     2.5055   YY=    27.1553   ZY=    -0.2721
   XZ=    -3.7230   YZ=    -0.9947   ZZ=    36.5164
   Eigenvalues:    26.0909    30.8273    38.7453
     94  H    Isotropic =    31.0337   Anisotropy =    12.9155
   XX=    29.9479   YX=     5.7537   ZX=    -0.0632
   XY=     5.7402   YY=    36.2073   ZY=     0.4478
   XZ=     0.4582   YZ=     0.5614   ZZ=    26.9458
   Eigenvalues:    26.5148    26.9422    39.6440
     95  H    Isotropic =    32.2625   Anisotropy =    17.6218
   XX=    28.3404   YX=     0.0406   ZX=     3.4600
   XY=     0.0161   YY=    27.2491   ZY=     5.3311
   XZ=     4.2955   YZ=     5.8006   ZZ=    41.1978
   Eigenvalues:    24.7498    28.0272    44.0103
     96  H    Isotropic =    32.0450   Anisotropy =    15.4680
   XX=    40.2604   YX=     1.2020   ZX=     4.6089
   XY=     1.0845   YY=    26.0904   ZY=     2.6675
   XZ=     4.9071   YZ=     2.6835   ZZ=    29.7844
   Eigenvalues:    24.5693    29.2087    42.3571
     97  H    Isotropic =    32.5891   Anisotropy =    12.6775
   XX=    26.6431   YX=    -0.8660   ZX=     1.7516
   XY=    -1.5361   YY=    32.8957   ZY=    -4.5304
   XZ=     2.1102   YZ=    -4.2118   ZZ=    38.2285
   Eigenvalues:    26.2822    30.4443    41.0408
     98  H    Isotropic =    32.2412   Anisotropy =    14.1653
   XX=    39.8280   YX=    -3.0735   ZX=     5.4846
   XY=    -0.4394   YY=    29.9631   ZY=     2.2064
   XZ=     4.4399   YZ=    -0.5620   ZZ=    26.9324
   Eigenvalues:    24.8801    30.1587    41.6847
     99  H    Isotropic =    30.4574   Anisotropy =    11.3289
   XX=    28.9264   YX=    -1.2524   ZX=    -2.6943
   XY=    -1.0031   YY=    29.6313   ZY=    -5.3721
   XZ=    -4.1418   YZ=    -6.8270   ZZ=    32.8145
   Eigenvalues:    23.2651    30.0972    38.0100
    100  H    Isotropic =    30.5577   Anisotropy =    16.1250
   XX=    35.3224   YX=    -8.5009   ZX=     2.6509
   XY=    -6.0345   YY=    32.2866   ZY=     1.4814
   XZ=     1.8874   YZ=     0.4435   ZZ=    24.0640
   Eigenvalues:    22.7022    27.6631    41.3077
    101  H    Isotropic =    31.1459   Anisotropy =    12.7078
   XX=    38.7262   YX=     1.2234   ZX=    -3.5805
   XY=     2.2458   YY=    27.1711   ZY=     0.2493
   XZ=    -2.0420   YZ=    -0.1084   ZZ=    27.5405
   Eigenvalues:    26.4439    27.3761    39.6178
    102  H    Isotropic =    29.9888   Anisotropy =    11.2511
   XX=    26.9925   YX=     4.1609   ZX=    -2.0771
   XY=     5.0513   YY=    35.4682   ZY=     1.2022
   XZ=    -0.5377   YZ=    -0.1324   ZZ=    27.5056
   Eigenvalues:    24.3411    28.1357    37.4895
    103  H    Isotropic =    31.6786   Anisotropy =    15.1935
   XX=    41.6783   YX=     1.7002   ZX=    -0.1990
   XY=     1.2231   YY=    25.2404   ZY=     0.0053
   XZ=     0.0647   YZ=    -0.0087   ZZ=    28.1170
   Eigenvalues:    25.1114    28.1167    41.8076
    104  H    Isotropic =    31.3244   Anisotropy =    13.0346
   XX=    35.1200   YX=    -1.2935   ZX=    -5.4812
   XY=    -1.2146   YY=    27.5915   ZY=     1.5511
   XZ=    -6.6937   YZ=     2.8892   ZZ=    31.2616
   Eigenvalues:    25.9318    28.0272    40.0141
    105  H    Isotropic =    30.4594   Anisotropy =     8.2199
   XX=    27.7149   YX=    -3.1501   ZX=    -0.7228
   XY=    -3.3371   YY=    34.6600   ZY=    -0.6459
   XZ=    -1.6760   YZ=    -0.3452   ZZ=    29.0032
   Eigenvalues:    25.8941    29.5447    35.9393
    106  H    Isotropic =    30.6196   Anisotropy =     9.9167
   XX=    31.9289   YX=     0.5188   ZX=     4.8912
   XY=     0.4120   YY=    27.0602   ZY=    -1.9625
   XZ=     4.5263   YZ=    -1.5573   ZZ=    32.8698
   Eigenvalues:    25.7555    28.8727    37.2307
    107  H    Isotropic =    30.5403   Anisotropy =    12.7373
   XX=    29.5944   YX=     1.8121   ZX=    -4.6962
   XY=     2.1915   YY=    28.0858   ZY=    -4.7745
   XZ=    -4.2715   YZ=    -4.4862   ZZ=    33.9407
   Eigenvalues:    25.4500    27.1391    39.0318
    108  H    Isotropic =    30.6602   Anisotropy =    14.1482
   XX=    27.6496   YX=     1.7370   ZX=     1.4480
   XY=     1.9222   YY=    26.6268   ZY=     5.2137
   XZ=     1.7138   YZ=     5.0664   ZZ=    37.7042
   Eigenvalues:    24.2068    27.6815    40.0923
    109  H    Isotropic =    31.2493   Anisotropy =    11.5904
   XX=    32.2545   YX=     2.9102   ZX=    -6.6611
   XY=     2.9278   YY=    29.0218   ZY=     1.5691
   XZ=    -6.3416   YZ=     1.3348   ZZ=    32.4717
   Eigenvalues:    23.9434    30.8283    38.9763
    110  H    Isotropic =    31.8576   Anisotropy =    12.5329
   XX=    30.2904   YX=    -5.1758   ZX=    -1.8102
   XY=    -5.8990   YY=    35.9530   ZY=     3.1293
   XZ=    -0.7414   YZ=     2.5285   ZZ=    29.3294
   Eigenvalues:    26.8167    28.5433    40.2129
 End of Minotr F.D. properties file   721 does not exist.
 End of Minotr F.D. properties file   722 does not exist.
 End of Minotr F.D. properties file   788 does not exist.
 Hyperfine terms turned off by default for NAtoms > 100.

 **********************************************************************

            Population analysis using the SCF Density.

 **********************************************************************

 Orbital symmetries:
       Occupied  (A) (A) (A) (A) (A) (A) (A) (A) (A) (A) (A) (A)
                 (A) (A) (A) (A) (A) (A) (A) (A) (A) (A) (A) (A)
                 (A) (A) (A) (A) (A) (A) (A) (A) (A) (A) (A) (A)
                 (A) (A) (A) (A) (A) (A) (A) (A) (A) (A) (A) (A)
                 (A) (A) (A) (A) (A) (A) (A) (A) (A) (A) (A) (A)
                 (A) (A) (A) (A) (A) (A) (A) (A) (A) (A) (A) (A)
                 (A) (A) (A) (A) (A) (A) (A) (A) (A) (A) (A) (A)
                 (A) (A) (A) (A) (A) (A) (A) (A) (A) (A) (A) (A)
                 (A) (A) (A) (A) (A) (A) (A) (A) (A) (A) (A) (A)
                 (A) (A) (A) (A) (A) (A) (A) (A) (A) (A) (A) (A)
                 (A) (A) (A) (A) (A) (A) (A) (A) (A) (A) (A) (A)
                 (A) (A) (A) (A) (A) (A) (A) (A) (A) (A) (A) (A)
                 (A) (A) (A) (A) (A) (A) (A) (A) (A) (A) (A) (A)
                 (A) (A) (A) (A) (A) (A) (A) (A) (A) (A) (A) (A)
                 (A) (A) (A) (A) (A) (A) (A) (A) (A) (A) (A) (A)
                 (A) (A) (A) (A) (A) (A) (A) (A) (A) (A) (A) (A)
                 (A) (A) (A) (A) (A)
       Virtual   (A) (A) (A) (A) (A) (A) (A) (A) (A) (A) (A) (A)
                 (A) (A) (A) (A) (A) (A) (A) (A) (A) (A) (A) (A)
                 (A) (A) (A) (A) (A) (A) (A) (A) (A) (A) (A) (A)
                 (A) (A) (A) (A) (A) (A) (A) (A) (A) (A) (A) (A)
                 (A) (A) (A) (A) (A) (A) (A) (A) (A) (A) (A) (A)
                 (A) (A) (A) (A) (A) (A) (A) (A) (A) (A) (A) (A)
                 (A) (A) (A) (A) (A) (A) (A) (A) (A) (A) (A) (A)
                 (A) (A) (A) (A) (A) (A) (A) (A) (A) (A) (A) (A)
                 (A) (A) (A) (A) (A) (A) (A) (A) (A) (A) (A) (A)
                 (A) (A) (A) (A) (A) (A) (A) (A) (A) (A) (A) (A)
                 (A) (A) (A) (A) (A) (A) (A) (A) (A)
 The electronic state is 1-A.
 Alpha  occ. eigenvalues --  -20.30603 -20.29023 -20.24577 -20.22200 -19.91837
 Alpha  occ. eigenvalues --  -15.48041 -15.33531 -15.33500 -15.30633 -11.16486
 Alpha  occ. eigenvalues --  -11.14656 -11.10536 -11.09539 -11.09376 -11.09375
 Alpha  occ. eigenvalues --  -11.09186 -11.08957 -11.08649 -11.08085 -11.07898
 Alpha  occ. eigenvalues --  -11.07019 -11.06793 -11.06434 -11.06375 -11.06210
 Alpha  occ. eigenvalues --  -11.06155 -11.05863 -11.05644 -11.05595 -11.05532
 Alpha  occ. eigenvalues --  -11.05291 -11.05042 -11.04705 -11.04666 -11.04577
 Alpha  occ. eigenvalues --  -11.04343 -11.04141 -11.04074 -11.03876 -11.03838
 Alpha  occ. eigenvalues --  -11.03828 -11.03705 -11.03695 -11.03096 -11.02258
 Alpha  occ. eigenvalues --  -11.02226 -11.02142 -11.02004 -11.01922 -11.01724
 Alpha  occ. eigenvalues --  -11.01665 -11.01581 -11.01395 -11.01291  -1.37823
 Alpha  occ. eigenvalues --   -1.36087  -1.29517  -1.27625  -1.25369  -1.21394
 Alpha  occ. eigenvalues --   -1.20843  -1.18834  -1.10474  -1.09635  -1.08947
 Alpha  occ. eigenvalues --   -1.07518  -1.05731  -1.04841  -1.02670  -1.00779
 Alpha  occ. eigenvalues --   -0.99109  -0.98726  -0.98382  -0.97377  -0.96754
 Alpha  occ. eigenvalues --   -0.96448  -0.95096  -0.94475  -0.94117  -0.92271
 Alpha  occ. eigenvalues --   -0.91605  -0.91459  -0.90225  -0.89480  -0.87931
 Alpha  occ. eigenvalues --   -0.86369  -0.84777  -0.82845  -0.81872  -0.80896
 Alpha  occ. eigenvalues --   -0.80391  -0.79571  -0.78182  -0.77644  -0.77442
 Alpha  occ. eigenvalues --   -0.77230  -0.74420  -0.74124  -0.72738  -0.72201
 Alpha  occ. eigenvalues --   -0.71195  -0.70247  -0.69337  -0.68502  -0.65895
 Alpha  occ. eigenvalues --   -0.65251  -0.64834  -0.64750  -0.63579  -0.63185
 Alpha  occ. eigenvalues --   -0.62352  -0.62163  -0.61545  -0.61227  -0.61114
 Alpha  occ. eigenvalues --   -0.60598  -0.59655  -0.59393  -0.58680  -0.58482
 Alpha  occ. eigenvalues --   -0.58226  -0.58040  -0.57768  -0.57522  -0.57341
 Alpha  occ. eigenvalues --   -0.56793  -0.56690  -0.56573  -0.55731  -0.55240
 Alpha  occ. eigenvalues --   -0.54843  -0.54707  -0.54653  -0.54524  -0.54462
 Alpha  occ. eigenvalues --   -0.54010  -0.53773  -0.53275  -0.52469  -0.51778
 Alpha  occ. eigenvalues --   -0.51665  -0.51006  -0.50937  -0.50603  -0.50351
 Alpha  occ. eigenvalues --   -0.49964  -0.49533  -0.49396  -0.49143  -0.48547
 Alpha  occ. eigenvalues --   -0.48227  -0.48005  -0.47665  -0.47334  -0.47129
 Alpha  occ. eigenvalues --   -0.46489  -0.46071  -0.45876  -0.45562  -0.45083
 Alpha  occ. eigenvalues --   -0.44801  -0.44755  -0.44368  -0.44265  -0.43686
 Alpha  occ. eigenvalues --   -0.43446  -0.43337  -0.43114  -0.42531  -0.42484
 Alpha  occ. eigenvalues --   -0.42249  -0.41935  -0.41433  -0.41093  -0.40685
 Alpha  occ. eigenvalues --   -0.40420  -0.39843  -0.38720  -0.38392  -0.38117
 Alpha  occ. eigenvalues --   -0.37349  -0.37135  -0.36445  -0.35466  -0.34174
 Alpha  occ. eigenvalues --   -0.33291  -0.33046  -0.32055  -0.31268  -0.30785
 Alpha  occ. eigenvalues --   -0.27247  -0.27149  -0.26205  -0.21135  -0.20431
 Alpha  occ. eigenvalues --   -0.15788  -0.15290
 Alpha virt. eigenvalues --    0.26880   0.26987   0.27610   0.28750   0.30483
 Alpha virt. eigenvalues --    0.32941   0.45687   0.48177   0.48471   0.49025
 Alpha virt. eigenvalues --    0.49376   0.50197   0.50331   0.51869   0.52258
 Alpha virt. eigenvalues --    0.53790   0.54202   0.55134   0.55627   0.55985
 Alpha virt. eigenvalues --    0.57132   0.57317   0.57930   0.58157   0.59479
 Alpha virt. eigenvalues --    0.59729   0.59846   0.59959   0.60501   0.61084
 Alpha virt. eigenvalues --    0.61255   0.61670   0.62491   0.62751   0.63012
 Alpha virt. eigenvalues --    0.63221   0.63587   0.64054   0.64413   0.64612
 Alpha virt. eigenvalues --    0.64870   0.64954   0.65307   0.65645   0.65846
 Alpha virt. eigenvalues --    0.66203   0.66427   0.66697   0.67083   0.67444
 Alpha virt. eigenvalues --    0.67514   0.67674   0.67916   0.68156   0.68313
 Alpha virt. eigenvalues --    0.68456   0.69062   0.69363   0.69609   0.69902
 Alpha virt. eigenvalues --    0.70303   0.70486   0.70555   0.70858   0.70967
 Alpha virt. eigenvalues --    0.71197   0.71403   0.71717   0.71901   0.72164
 Alpha virt. eigenvalues --    0.72454   0.73051   0.73423   0.73571   0.73758
 Alpha virt. eigenvalues --    0.74063   0.74344   0.74535   0.74651   0.75020
 Alpha virt. eigenvalues --    0.75188   0.75559   0.75889   0.76063   0.76289
 Alpha virt. eigenvalues --    0.76536   0.76793   0.77229   0.77455   0.77768
 Alpha virt. eigenvalues --    0.78119   0.78159   0.78624   0.79161   0.79380
 Alpha virt. eigenvalues --    0.79516   0.79822   0.80163   0.80629   0.80928
 Alpha virt. eigenvalues --    0.81132   0.81343   0.81557   0.81721   0.82439
 Alpha virt. eigenvalues --    0.82857   0.83950   0.84377   0.84482   0.84641
 Alpha virt. eigenvalues --    0.85642   0.86242   0.86362   0.87568   0.87760
 Alpha virt. eigenvalues --    0.88151   0.89405   0.90800   0.91671   0.94169
 Alpha virt. eigenvalues --    0.94533   0.95675   0.97664   1.01433   1.02326
 Alpha virt. eigenvalues --    1.10452   1.11454   1.15808   1.16142
          Condensed to atoms (all electrons):
 Mulliken charges:
               1
     1  C   -0.074920
     2  C   -0.000642
     3  C   -0.062047
     4  C   -0.090117
     5  C    0.089002
     6  C   -0.012574
     7  N   -0.286115
     8  C    0.017760
     9  C    0.127885
    10  C    0.039888
    11  C   -0.114952
    12  C   -0.105549
    13  C    0.027902
    14  N   -0.291490
    15  C   -0.016249
    16  C   -0.108222
    17  C   -0.102150
    18  C   -0.105517
    19  C   -0.020082
    20  C   -0.110472
    21  C   -0.066440
    22  C    0.319567
    23  O   -0.276928
    24  O   -0.255440
    25  C   -0.055782
    26  C   -0.079181
    27  C   -0.109686
    28  C    0.001443
    29  C   -0.079746
    30  C   -0.061960
    31  C   -0.090014
    32  C    0.093845
    33  C   -0.013973
    34  N   -0.279368
    35  C    0.015594
    36  C    0.135135
    37  C    0.039822
    38  C   -0.116088
    39  C   -0.105446
    40  C    0.040644
    41  N   -0.081083
    42  C   -0.002924
    43  C   -0.097144
    44  C   -0.099028
    45  C   -0.095852
    46  C   -0.003334
    47  C   -0.098549
    48  C   -0.059080
    49  C    0.325157
    50  O   -0.273464
    51  O   -0.255571
    52  C   -0.055636
    53  C   -0.077475
    54  O   -0.461912
    55  H    0.065563
    56  H    0.055075
    57  H    0.057924
    58  H    0.056804
    59  H    0.050653
    60  H    0.055059
    61  H    0.048306
    62  H    0.051298
    63  H    0.054651
    64  H    0.060812
    65  H    0.055402
    66  H    0.050596
    67  H    0.050940
    68  H    0.051660
    69  H    0.061786
    70  H    0.064001
    71  H    0.055709
    72  H    0.051958
    73  H    0.067811
    74  H    0.051512
    75  H    0.064884
    76  H    0.072373
    77  H    0.077165
    78  H    0.074613
    79  H    0.055437
    80  H    0.071648
    81  H    0.076465
    82  H    0.058236
    83  H    0.058305
    84  H    0.053580
    85  H    0.057267
    86  H    0.060004
    87  H    0.053794
    88  H    0.054299
    89  H    0.049462
    90  H    0.053225
    91  H    0.046892
    92  H    0.085052
    93  H    0.055263
    94  H    0.081921
    95  H    0.057666
    96  H    0.058708
    97  H    0.046423
    98  H    0.067263
    99  H    0.091542
   100  H    0.091797
   101  H    0.059244
   102  H    0.101143
   103  H    0.045119
   104  H    0.061438
   105  H    0.076485
   106  H    0.073506
   107  H    0.070114
   108  H    0.073547
   109  H    0.072036
   110  H    0.055121
 Sum of Mulliken charges =  -0.00000
 Mulliken charges with hydrogens summed into heavy atoms:
               1
     1  C   -0.009358
     2  C   -0.000642
     3  C   -0.006972
     4  C   -0.032193
     5  C    0.089002
     6  C   -0.012574
     7  N   -0.286115
     8  C    0.017760
     9  C    0.127885
    10  C    0.096692
    11  C   -0.009240
    12  C   -0.005946
    13  C    0.027902
    14  N   -0.291490
    15  C    0.099213
    16  C   -0.002223
    17  C    0.000449
    18  C    0.020270
    19  C    0.087584
    20  C    0.008850
    21  C   -0.001555
    22  C    0.319567
    23  O   -0.276928
    24  O   -0.255440
    25  C    0.168370
    26  C    0.124368
    27  C    0.006855
    28  C    0.001443
    29  C   -0.026166
    30  C   -0.004693
    31  C   -0.030011
    32  C    0.093845
    33  C   -0.013973
    34  N   -0.279368
    35  C    0.015594
    36  C    0.135135
    37  C    0.093616
    38  C   -0.012326
    39  C   -0.005329
    40  C    0.040644
    41  N   -0.081083
    42  C    0.137391
    43  C    0.042444
    44  C    0.006104
    45  C    0.062953
    46  C    0.147706
    47  C    0.047714
    48  C    0.002359
    49  C    0.325157
    50  O   -0.273464
    51  O   -0.255571
    52  C    0.164468
    53  C    0.123230
    54  O   -0.461912
 Electronic spatial extent (au):  <R**2>=          38075.5952
 Charge=             -0.0000 electrons
 Dipole moment (field-independent basis, Debye):
    X=              2.5891    Y=              3.3152    Z=             -0.2289  Tot=              4.2127
 Quadrupole moment (field-independent basis, Debye-Ang):
   XX=           -293.1633   YY=           -310.5484   ZZ=           -286.0161
   XY=            -20.2778   XZ=             11.2831   YZ=             -0.1087
 Traceless Quadrupole moment (field-independent basis, Debye-Ang):
   XX=              3.4126   YY=            -13.9725   ZZ=             10.5598
   XY=            -20.2778   XZ=             11.2831   YZ=             -0.1087
 Octapole moment (field-independent basis, Debye-Ang**2):
  XXX=            172.2568  YYY=             -0.0634  ZZZ=              0.9232  XYY=             61.1399
  XXY=            133.1521  XXZ=             -3.2012  XZZ=            -38.1806  YZZ=            -30.1708
  YYZ=             22.3124  XYZ=            -28.9576
 Hexadecapole moment (field-independent basis, Debye-Ang**3):
 XXXX=         -32789.8218 YYYY=          -8401.7103 ZZZZ=          -4995.3025 XXXY=           -520.1770
 XXXZ=           -159.4961 YYYX=             -2.4968 YYYZ=             12.9030 ZZZX=           -175.3916
 ZZZY=             22.4517 XXYY=          -7506.0358 XXZZ=          -6267.4537 YYZZ=          -2219.2613
 XXYZ=             58.5810 YYXZ=             -2.0482 ZZXY=             80.3368
 N-N= 8.130698513344D+03 E-N=-2.163807520196D+04  KE= 2.279091860184D+03
 ******************************Gaussian NBO Version 3.1******************************
             N A T U R A L   A T O M I C   O R B I T A L   A N D
          N A T U R A L   B O N D   O R B I T A L   A N A L Y S I S
 ******************************Gaussian NBO Version 3.1******************************
       /RESON  / : Allow strongly delocalized NBO set
       /NLMO   / : Form Natural Localized Molecular Orbitals
       /NMR /    : Analyze NMR Sheilding Tensor 

 Analyzing the SCF density

 Job title: Pleiokomenine_C_2                                               

 Storage needed:    355564 in NPA,    438187 in NBO,   2133784 in NLMO ( 104796000 available)
 GSVD:  LWork=     -108884 too small for GESVD, short by      536270 words or      536270 for optimal perf.


 NATURAL POPULATIONS:  Natural atomic orbital occupancies 
                                                          
   NAO  Atom  No  lang   Type(AO)    Occupancy      Energy
 ----------------------------------------------------------
     1    C    1  S      Cor( 1S)     1.99993     -10.94152
     2    C    1  S      Val( 2S)     1.07857      -0.17263
     3    C    1  px     Val( 2p)     0.98559       0.15317
     4    C    1  py     Val( 2p)     0.98089       0.16167
     5    C    1  pz     Val( 2p)     1.01157       0.01661
 
     6    C    2  S      Cor( 1S)     1.99990     -10.95443
     7    C    2  S      Val( 2S)     1.07863      -0.18140
     8    C    2  px     Val( 2p)     0.94057       0.16867
     9    C    2  py     Val( 2p)     0.95748       0.17804
    10    C    2  pz     Val( 2p)     1.00984       0.02628
 
    11    C    3  S      Cor( 1S)     1.99994     -10.94557
    12    C    3  S      Val( 2S)     1.08450      -0.18085
    13    C    3  px     Val( 2p)     0.96692       0.16447
    14    C    3  py     Val( 2p)     0.97537       0.15777
    15    C    3  pz     Val( 2p)     1.00691       0.01757
 
    16    C    4  S      Cor( 1S)     1.99993     -10.93859
    17    C    4  S      Val( 2S)     1.07208      -0.17122
    18    C    4  px     Val( 2p)     0.98580       0.15266
    19    C    4  py     Val( 2p)     0.97240       0.16299
    20    C    4  pz     Val( 2p)     1.05684       0.00511
 
    21    C    5  S      Cor( 1S)     1.99985     -10.98516
    22    C    5  S      Val( 2S)     1.05880      -0.18119
    23    C    5  px     Val( 2p)     0.88883       0.16372
    24    C    5  py     Val( 2p)     0.96024       0.16867
    25    C    5  pz     Val( 2p)     0.98022       0.01706
 
    26    C    6  S      Cor( 1S)     1.99990     -10.94311
    27    C    6  S      Val( 2S)     1.08240      -0.18362
    28    C    6  px     Val( 2p)     0.97090       0.17487
    29    C    6  py     Val( 2p)     0.94760       0.15631
    30    C    6  pz     Val( 2p)     1.02345       0.02046
 
    31    N    7  S      Cor( 1S)     1.99998     -15.26770
    32    N    7  S      Val( 2S)     1.40578      -0.59352
    33    N    7  px     Val( 2p)     1.18212      -0.01693
    34    N    7  py     Val( 2p)     1.10689      -0.00035
    35    N    7  pz     Val( 2p)     1.57960      -0.18800
 
    36    C    8  S      Cor( 1S)     1.99996     -11.00517
    37    C    8  S      Val( 2S)     1.10896      -0.23041
    38    C    8  px     Val( 2p)     0.96210       0.08172
    39    C    8  py     Val( 2p)     0.96430       0.11125
    40    C    8  pz     Val( 2p)     0.94538       0.10700
 
    41    C    9  S      Cor( 1S)     1.99996     -11.04934
    42    C    9  S      Val( 2S)     1.11221      -0.25558
    43    C    9  px     Val( 2p)     0.92569       0.08615
    44    C    9  py     Val( 2p)     0.85510       0.12237
    45    C    9  pz     Val( 2p)     0.93548       0.08748
 
    46    C   10  S      Cor( 1S)     1.99993     -11.01671
    47    C   10  S      Val( 2S)     1.09787      -0.21932
    48    C   10  px     Val( 2p)     0.96272       0.09721
    49    C   10  py     Val( 2p)     0.94125       0.08495
    50    C   10  pz     Val( 2p)     0.92453       0.10999
 
    51    C   11  S      Cor( 1S)     1.99994     -10.97968
    52    C   11  S      Val( 2S)     1.10386      -0.21412
    53    C   11  px     Val( 2p)     1.01251       0.08315
    54    C   11  py     Val( 2p)     0.99336       0.08754
    55    C   11  pz     Val( 2p)     0.97550       0.08346
 
    56    C   12  S      Cor( 1S)     1.99996     -10.97743
    57    C   12  S      Val( 2S)     1.09138      -0.19965
    58    C   12  px     Val( 2p)     1.01399       0.08575
    59    C   12  py     Val( 2p)     0.98141       0.08868
    60    C   12  pz     Val( 2p)     0.98708       0.09306
 
    61    C   13  S      Cor( 1S)     1.99998     -11.00403
    62    C   13  S      Val( 2S)     1.10509      -0.22776
    63    C   13  px     Val( 2p)     0.93641       0.11339
    64    C   13  py     Val( 2p)     0.94942       0.10985
    65    C   13  pz     Val( 2p)     0.95882       0.09655
 
    66    N   14  S      Cor( 1S)     1.99999     -15.23946
    67    N   14  S      Val( 2S)     1.42832      -0.58383
    68    N   14  px     Val( 2p)     1.44399      -0.10940
    69    N   14  py     Val( 2p)     1.26569      -0.03901
    70    N   14  pz     Val( 2p)     1.14146       0.00696
 
    71    C   15  S      Cor( 1S)     1.99993     -11.00786
    72    C   15  S      Val( 2S)     1.06999      -0.19001
    73    C   15  px     Val( 2p)     0.98197       0.08203
    74    C   15  py     Val( 2p)     0.91090       0.11622
    75    C   15  pz     Val( 2p)     0.99975       0.08304
 
    76    C   16  S      Cor( 1S)     1.99997     -10.97606
    77    C   16  S      Val( 2S)     1.08085      -0.18933
    78    C   16  px     Val( 2p)     1.01180       0.08875
    79    C   16  py     Val( 2p)     0.99409       0.09167
    80    C   16  pz     Val( 2p)     0.98801       0.09312
 
    81    C   17  S      Cor( 1S)     1.99996     -10.97891
    82    C   17  S      Val( 2S)     1.08578      -0.19434
    83    C   17  px     Val( 2p)     1.00935       0.08743
    84    C   17  py     Val( 2p)     0.98672       0.09133
    85    C   17  pz     Val( 2p)     0.98673       0.09293
 
    86    C   18  S      Cor( 1S)     1.99995     -10.97510
    87    C   18  S      Val( 2S)     1.09202      -0.19562
    88    C   18  px     Val( 2p)     1.02582       0.09084
    89    C   18  py     Val( 2p)     0.98281       0.08671
    90    C   18  pz     Val( 2p)     0.97487       0.09728
 
    91    C   19  S      Cor( 1S)     1.99994     -10.99998
    92    C   19  S      Val( 2S)     1.07210      -0.18524
    93    C   19  px     Val( 2p)     0.94819       0.10353
    94    C   19  py     Val( 2p)     0.99585       0.08841
    95    C   19  pz     Val( 2p)     0.95071       0.09767
 
    96    C   20  S      Cor( 1S)     1.99992     -10.98418
    97    C   20  S      Val( 2S)     1.09989      -0.21214
    98    C   20  px     Val( 2p)     0.97163       0.08413
    99    C   20  py     Val( 2p)     0.97526       0.09187
   100    C   20  pz     Val( 2p)     1.02690       0.07562
 
   101    C   21  S      Cor( 1S)     1.99994     -11.00828
   102    C   21  S      Val( 2S)     1.11091      -0.23896
   103    C   21  px     Val( 2p)     0.98831       0.07819
   104    C   21  py     Val( 2p)     0.99217       0.06846
   105    C   21  pz     Val( 2p)     0.99307       0.06741
 
   106    C   22  S      Cor( 1S)     1.99991     -11.11194
   107    C   22  S      Val( 2S)     1.05486      -0.26084
   108    C   22  px     Val( 2p)     0.84215       0.07204
   109    C   22  py     Val( 2p)     0.80972       0.12079
   110    C   22  pz     Val( 2p)     0.89049       0.08255
 
   111    O   23  S      Cor( 1S)     1.99999     -20.09840
   112    O   23  S      Val( 2S)     1.80823      -1.05818
   113    O   23  px     Val( 2p)     1.67287      -0.26541
   114    O   23  py     Val( 2p)     1.35761      -0.13574
   115    O   23  pz     Val( 2p)     1.47238      -0.17957
 
   116    O   24  S      Cor( 1S)     1.99999     -20.21540
   117    O   24  S      Val( 2S)     1.73004      -1.02799
   118    O   24  px     Val( 2p)     1.38803      -0.17002
   119    O   24  py     Val( 2p)     1.64884      -0.28843
   120    O   24  pz     Val( 2p)     1.50012      -0.22622
 
   121    C   25  S      Cor( 1S)     1.99984     -11.04568
   122    C   25  S      Val( 2S)     1.07699      -0.22735
   123    C   25  px     Val( 2p)     0.96249       0.05040
   124    C   25  py     Val( 2p)     1.04060       0.03799
   125    C   25  pz     Val( 2p)     0.88546       0.07441
 
   126    C   26  S      Cor( 1S)     1.99992     -11.01477
   127    C   26  S      Val( 2S)     1.06535      -0.19536
   128    C   26  px     Val( 2p)     0.95647       0.07656
   129    C   26  py     Val( 2p)     1.00392       0.06447
   130    C   26  pz     Val( 2p)     0.99096       0.07483
 
   131    C   27  S      Cor( 1S)     1.99995     -10.98272
   132    C   27  S      Val( 2S)     1.08338      -0.18805
   133    C   27  px     Val( 2p)     0.98021       0.09780
   134    C   27  py     Val( 2p)     1.01336       0.08756
   135    C   27  pz     Val( 2p)     1.00932       0.08903
 
   136    C   28  S      Cor( 1S)     1.99991     -10.95569
   137    C   28  S      Val( 2S)     1.07870      -0.18374
   138    C   28  px     Val( 2p)     0.96146       0.11003
   139    C   28  py     Val( 2p)     0.98073       0.11099
   140    C   28  pz     Val( 2p)     0.96355       0.14777
 
   141    C   29  S      Cor( 1S)     1.99992     -10.94731
   142    C   29  S      Val( 2S)     1.07782      -0.17942
   143    C   29  px     Val( 2p)     0.99702       0.08437
   144    C   29  py     Val( 2p)     0.99879       0.09478
   145    C   29  pz     Val( 2p)     0.99036       0.12923
 
   146    C   30  S      Cor( 1S)     1.99994     -10.94739
   147    C   30  S      Val( 2S)     1.08369      -0.18192
   148    C   30  px     Val( 2p)     0.98530       0.09605
   149    C   30  py     Val( 2p)     0.99335       0.09557
   150    C   30  pz     Val( 2p)     0.97126       0.14277
 
   151    C   31  S      Cor( 1S)     1.99993     -10.94097
   152    C   31  S      Val( 2S)     1.07148      -0.17262
   153    C   31  px     Val( 2p)     1.01639       0.08320
   154    C   31  py     Val( 2p)     1.00494       0.09733
   155    C   31  pz     Val( 2p)     0.99530       0.13239
 
   156    C   32  S      Cor( 1S)     1.99985     -10.98960
   157    C   32  S      Val( 2S)     1.06090      -0.18646
   158    C   32  px     Val( 2p)     0.92764       0.10381
   159    C   32  py     Val( 2p)     0.94916       0.11504
   160    C   32  pz     Val( 2p)     0.94480       0.12498
 
   161    C   33  S      Cor( 1S)     1.99990     -10.95068
   162    C   33  S      Val( 2S)     1.08632      -0.19505
   163    C   33  px     Val( 2p)     0.99743       0.08783
   164    C   33  py     Val( 2p)     0.96046       0.11301
   165    C   33  pz     Val( 2p)     0.97798       0.13108
 
   166    N   34  S      Cor( 1S)     1.99998     -15.26745
   167    N   34  S      Val( 2S)     1.39814      -0.58815
   168    N   34  px     Val( 2p)     1.20053      -0.03415
   169    N   34  py     Val( 2p)     1.43581      -0.12690
   170    N   34  pz     Val( 2p)     1.23496      -0.03842
 
   171    C   35  S      Cor( 1S)     1.99996     -11.01291
   172    C   35  S      Val( 2S)     1.10393      -0.23642
   173    C   35  px     Val( 2p)     0.94906       0.10022
   174    C   35  py     Val( 2p)     0.97125       0.09348
   175    C   35  pz     Val( 2p)     0.96452       0.08023
 
   176    C   36  S      Cor( 1S)     1.99996     -11.05020
   177    C   36  S      Val( 2S)     1.11541      -0.25675
   178    C   36  px     Val( 2p)     0.92139       0.10587
   179    C   36  py     Val( 2p)     0.92182       0.09329
   180    C   36  pz     Val( 2p)     0.86207       0.10664
 
   181    C   37  S      Cor( 1S)     1.99991     -11.03263
   182    C   37  S      Val( 2S)     1.10897      -0.24928
   183    C   37  px     Val( 2p)     0.98620       0.06311
   184    C   37  py     Val( 2p)     0.84319       0.09474
   185    C   37  pz     Val( 2p)     0.99307       0.06290
 
   186    C   38  S      Cor( 1S)     1.99993     -10.97902
   187    C   38  S      Val( 2S)     1.10916      -0.21810
   188    C   38  px     Val( 2p)     1.00835       0.07871
   189    C   38  py     Val( 2p)     0.99117       0.08721
   190    C   38  pz     Val( 2p)     0.97582       0.08986
 
   191    C   39  S      Cor( 1S)     1.99996     -10.97982
   192    C   39  S      Val( 2S)     1.09094      -0.20153
   193    C   39  px     Val( 2p)     1.01739       0.08363
   194    C   39  py     Val( 2p)     0.98028       0.08744
   195    C   39  pz     Val( 2p)     0.98615       0.08816
 
   196    C   40  S      Cor( 1S)     1.99998     -11.01239
   197    C   40  S      Val( 2S)     1.09935      -0.22693
   198    C   40  px     Val( 2p)     0.93119       0.10780
   199    C   40  py     Val( 2p)     0.95766       0.09869
   200    C   40  pz     Val( 2p)     0.95198       0.10466
 
   201    N   41  S      Cor( 1S)     1.99999     -15.41608
   202    N   41  S      Val( 2S)     1.39163      -0.65545
   203    N   41  px     Val( 2p)     1.19561      -0.11892
   204    N   41  py     Val( 2p)     1.19550      -0.10798
   205    N   41  pz     Val( 2p)     1.18375      -0.10816
 
   206    C   42  S      Cor( 1S)     1.99992     -11.03716
   207    C   42  S      Val( 2S)     1.09103      -0.23383
   208    C   42  px     Val( 2p)     1.00468       0.05157
   209    C   42  py     Val( 2p)     1.02428       0.05322
   210    C   42  pz     Val( 2p)     0.82979       0.09504
 
   211    C   43  S      Cor( 1S)     1.99995     -10.99059
   212    C   43  S      Val( 2S)     1.08735      -0.20461
   213    C   43  px     Val( 2p)     0.94921       0.09573
   214    C   43  py     Val( 2p)     1.01022       0.07714
   215    C   43  pz     Val( 2p)     1.01667       0.08245
 
   216    C   44  S      Cor( 1S)     1.99994     -10.98689
   217    C   44  S      Val( 2S)     1.09177      -0.20537
   218    C   44  px     Val( 2p)     1.00955       0.08185
   219    C   44  py     Val( 2p)     0.98454       0.08842
   220    C   44  pz     Val( 2p)     0.97656       0.09029
 
   221    C   45  S      Cor( 1S)     1.99993     -10.98655
   222    C   45  S      Val( 2S)     1.09866      -0.20878
   223    C   45  px     Val( 2p)     0.99581       0.08824
   224    C   45  py     Val( 2p)     0.99090       0.07979
   225    C   45  pz     Val( 2p)     0.97889       0.08943
 
   226    C   46  S      Cor( 1S)     1.99993     -11.03025
   227    C   46  S      Val( 2S)     1.09488      -0.23126
   228    C   46  px     Val( 2p)     0.84787       0.09762
   229    C   46  py     Val( 2p)     1.03172       0.05500
   230    C   46  pz     Val( 2p)     0.97850       0.05629
 
   231    C   47  S      Cor( 1S)     1.99991     -10.97330
   232    C   47  S      Val( 2S)     1.10342      -0.20114
   233    C   47  px     Val( 2p)     0.98633       0.10244
   234    C   47  py     Val( 2p)     1.04228       0.09058
   235    C   47  pz     Val( 2p)     0.92872       0.11057
 
   236    C   48  S      Cor( 1S)     1.99994     -11.00225
[...]

 Contributions to Isotropic shielding for atom   95 (    32.2625 ppm):
                         Standard Origin              Atomic Origin
 NLMO      Total    Paramagnetic  Diamagnetic   Paramagnetic  Diamagnetic
   89      -0.3973        0.3984      -0.7957        -1.1274       0.7301
  102       1.5539        0.3337       1.2201         0.5852       0.9687
  103       0.3037        1.5570      -1.2533        -0.5760       0.8797
  104       0.0641        1.3534      -1.2893        -0.8834       0.9475
  105       0.5243        3.2385      -2.7142        -0.5812       1.1054
  106       1.9073        3.9564      -2.0491         0.0606       1.8467
  107      26.3938       -0.2787      26.6725         0.5701      25.8237
  109       0.0332       -0.0428       0.0760        -1.0944       1.1276
 Sum       30.3830       10.5160      19.8670        -3.0464      33.4294

 Contributions to Isotropic shielding for atom   96 (    32.0450 ppm):
                         Standard Origin              Atomic Origin
 NLMO      Total    Paramagnetic  Diamagnetic   Paramagnetic  Diamagnetic
   89      -0.4949        0.4473      -0.9422        -1.2123       0.7174
   94      -0.2056        1.6619      -1.8675        -0.7301       0.5245
   97       1.0855        1.4262      -0.3407         0.1153       0.9702
   98      -0.4035        2.0690      -2.4725        -1.3987       0.9952
  105       0.5567        3.2383      -2.6816        -0.5253       1.0821
  106       0.0698        0.7820      -0.7122        -1.0444       1.1142
  107       0.3230        1.0901      -0.7670        -0.5381       0.8611
  108      26.4881       -0.4326      26.9206         0.7468      25.7413
  109       1.8494        3.4354      -1.5860         0.1237       1.7257
 Sum       29.2685       13.7176      15.5509        -4.4631      33.7316

 Contributions to Isotropic shielding for atom   97 (    32.5891 ppm):
                         Standard Origin              Atomic Origin
 NLMO      Total    Paramagnetic  Diamagnetic   Paramagnetic  Diamagnetic
   89      -0.4880        0.5178      -1.0059        -1.1008       0.6128
   90      -0.1353        1.3237      -1.4589        -0.8080       0.6727
   94      -0.2598        1.0565      -1.3163        -1.2075       0.9477
   97       1.9943       -1.3923       3.3866         1.0407       0.9536
  102       0.2282       -0.8476       1.0757        -0.3008       0.5290
  105       1.2525        0.3636       0.8888         0.1124       1.1401
  107       0.0530        0.0638      -0.0108        -0.9695       1.0225
  108       1.4415        4.3102      -2.8687        -0.4008       1.8423
  109      26.5824        0.1358      26.4466         0.5044      26.0780
 Sum       30.6688        5.5316      25.1372        -3.1300      33.7988

 Contributions to Isotropic shielding for atom   98 (    32.2412 ppm):
                         Standard Origin              Atomic Origin
 NLMO      Total    Paramagnetic  Diamagnetic   Paramagnetic  Diamagnetic
   69      -0.1497       -0.6933       0.5436        -1.0008       0.8511
   71      -0.0171       -1.0665       1.0494        -1.0428       1.0257
   80       0.3148       -1.0603       1.3751        -0.7799       1.0947
   81       0.2864       -0.8319       1.1182        -0.5192       0.8055
   85       1.1438        0.5327       0.6111         0.5231       0.6208
   89       0.4607       -0.6663       1.1270        -0.4800       0.9408
  110       1.3182       -0.8303       2.1485         0.4944       0.8238
  111      25.8996        0.6300      25.2696         0.4279      25.4717
  112       1.9382        0.2991       1.6392         0.0257       1.9126
  114       0.2353       -0.7663       1.0016        -0.6784       0.9137
  193      -0.4247        0.6405      -1.0653         0.3884      -0.8131
 Sum       31.0055       -3.8125      34.8180        -2.6417      33.6473

 Contributions to Isotropic shielding for atom   99 (    30.4574 ppm):
                         Standard Origin              Atomic Origin
 NLMO      Total    Paramagnetic  Diamagnetic   Paramagnetic  Diamagnetic
   85       0.2958        2.0353      -1.7395        -0.5158       0.8116
   87       0.0539       -1.1316       1.1855        -0.7952       0.8491
   89       0.5360       -0.6783       1.2143        -0.3441       0.8802
   98       0.1331       -0.9716       1.1047        -0.5343       0.6674
  101       0.0622       -0.9986       1.0608        -0.4739       0.5361
  110       0.8886        1.1165      -0.2279         0.1591       0.7295
  111       2.0760       -0.3088       2.3848         0.1609       1.9151
  112      25.5241        0.1043      25.4198         0.5206      25.0034
  115       0.0499       -0.9553       1.0052        -0.5329       0.5828
  118       0.5371       -1.4859       2.0230        -0.2811       0.8182
  122       0.9665       -1.0523       2.0188        -0.0552       1.0216
  123       0.3431       -1.1717       1.5149        -0.4465       0.7896
  124       0.0458       -1.4557       1.5015        -0.7740       0.8198
  125       0.1598       -1.0928       1.2527        -0.5515       0.7113
  193      -0.6142        1.3022      -1.9165         0.5014      -1.1156
  194      -0.7579       -1.1565       0.3986        -0.7294      -0.0285
  195      -0.1692        1.3275      -1.4967         0.8666      -1.0358
 Sum       30.1307       -6.5733      36.7040        -3.8252      33.9559

 Contributions to Isotropic shielding for atom  100 (    30.5577 ppm):
                         Standard Origin              Atomic Origin
 NLMO      Total    Paramagnetic  Diamagnetic   Paramagnetic  Diamagnetic
  100      -0.2133        2.0025      -2.2158        -0.9773       0.7640
  101       0.1619       -1.2624       1.4243        -0.8561       1.0180
  103      -0.0486       -1.7033       1.6546        -0.8735       0.8249
  104       0.2378       -0.8146       1.0524        -0.3719       0.6097
  110       1.1528       -0.3347       1.4875         0.1821       0.9707
  112       0.1440       -0.1308       0.2748        -0.8844       1.0284
  113      25.6581        0.5755      25.0826         0.8356      24.8225
  114       1.9309       -0.2605       2.1914         0.2339       1.6971
  195       0.0134        1.2192      -1.2058         0.8405      -0.8271
 Sum       29.0370       -0.7091      29.7461        -1.8713      30.9082

 Contributions to Isotropic shielding for atom  101 (    31.1459 ppm):
                         Standard Origin              Atomic Origin
 NLMO      Total    Paramagnetic  Diamagnetic   Paramagnetic  Diamagnetic
   71       0.0897       -0.6648       0.7545        -1.0573       1.1470
   84       0.1652       -0.9360       1.1012        -0.6526       0.8178
   89       1.0744       -0.7932       1.8676         0.1798       0.8946
   90      -0.0698       -1.0755       1.0058        -0.7920       0.7223
   99       0.5924       -0.4972       1.0896        -0.1004       0.6927
  100       0.1718        1.6213      -1.4494        -0.2658       0.4376
  103       0.1480       -1.1026       1.2506        -0.5839       0.7319
  104       0.0283       -1.7092       1.7375        -0.7745       0.8027
  110       1.2401       -1.0369       2.2770         0.4189       0.8213
  113       1.6639       -0.1992       1.8631        -0.1761       1.8400
  114      26.2366        0.5877      25.6489         0.6105      25.6261
 Sum       31.3406       -5.8057      37.1463        -3.1934      34.5339

 Contributions to Isotropic shielding for atom  102 (    29.9888 ppm):
                         Standard Origin              Atomic Origin
 NLMO      Total    Paramagnetic  Diamagnetic   Paramagnetic  Diamagnetic
   89      -0.6457        0.3985      -1.0442        -1.5367       0.8910
   97      -0.1959        0.7410      -0.9369        -1.0082       0.8123
   98       1.4430       -0.3321       1.7751         0.5520       0.8910
  106      -0.2426       -1.2188       0.9762        -0.8051       0.5625
  115       1.3983       -0.4607       1.8590         0.5141       0.8842
  116      25.2875        0.0108      25.2767         0.6444      24.6431
  117       0.9730        4.0867      -3.1136        -0.9445       1.9175
  118      -0.5737        0.5911      -1.1648        -1.7294       1.1557
  119       0.3402        1.3438      -1.0036        -0.1489       0.4891
  120      -0.2786       -0.4664       0.1877        -1.1667       0.8881
  121       0.2838       -0.2958       0.5796        -1.2856       1.5694
 Sum       27.7894        4.3980      23.3914        -6.9146      34.7039

 Contributions to Isotropic shielding for atom  103 (    31.6786 ppm):
                         Standard Origin              Atomic Origin
 NLMO      Total    Paramagnetic  Diamagnetic   Paramagnetic  Diamagnetic
   86      -0.1180        0.4729      -0.5909        -1.0241       0.9061
   94      -0.3280        1.2792      -1.6072        -1.2882       0.9602
   97      -0.2528        1.6161      -1.8689        -0.8720       0.6191
   98       0.7507        2.2740      -1.5233        -0.2309       0.9817
  108      -0.0312       -1.4262       1.3950        -0.8244       0.7932
  115       0.7663        2.7232      -1.9570        -0.3249       1.0911
  116       1.8085        4.0272      -2.2187        -0.2305       2.0390
  117      26.9789       -0.8374      27.8163         0.8938      26.0852
  118      -0.4303        0.7290      -1.1593        -0.7538       0.3235
  119      -0.1759        1.0203      -1.1962        -1.2986       1.1227
  120      -0.3586       -0.1380      -0.2206        -1.1352       0.7766
  121       0.0855        0.3255      -0.2399        -1.1190       1.2045
 Sum       28.6951       12.0657      16.6294        -8.2079      36.9030

 Contributions to Isotropic shielding for atom  104 (    31.3244 ppm):
                         Standard Origin              Atomic Origin
 NLMO      Total    Paramagnetic  Diamagnetic   Paramagnetic  Diamagnetic
   81      -0.5802        1.1660      -1.7462        -1.2853       0.7051
   82      -0.1586        0.5462      -0.7048        -1.1335       0.9749
   86      -0.5030        1.7900      -2.2930        -1.6371       1.1342
   87       1.4455        1.1145       0.3310         0.4474       0.9980
   93      -0.0769       -1.6668       1.5899        -0.8476       0.7707
  115       0.5964        4.8045      -4.2080        -0.6347       1.2311
  117      -0.0581       -1.0519       0.9938        -1.2075       1.1494
  118       0.5726        4.3996      -3.8269        -0.6034       1.1761
  119      26.2570       -0.9453      27.2023         0.5300      25.7270
  120      -0.5784        0.1983      -0.7766        -1.4036       0.8252
  121      -0.3702        1.0887      -1.4589        -1.3547       0.9844
  122      -0.1654       -0.6557       0.4903        -1.2331       1.0677
  128      -0.2293       -1.6623       1.4331        -0.7032       0.4739
  191       0.2845       -1.0092       1.2937         0.4446      -0.1601
 Sum       26.4359        8.1165      18.3194       -10.6217      37.0576

 Contributions to Isotropic shielding for atom  105 (    30.4594 ppm):
                         Standard Origin              Atomic Origin
 NLMO      Total    Paramagnetic  Diamagnetic   Paramagnetic  Diamagnetic
  121       0.5438       -1.0146       1.5584        -1.0273       1.5711
  122      -0.2774        0.6175      -0.8949        -1.1141       0.8367
  123       1.7129       -2.3416       4.0545         0.2951       1.4178
  124      25.9642        0.8246      25.1395         0.8251      25.1391
  125       1.8773       -0.7695       2.6468        -0.1552       2.0325
  126       1.1058        2.2808      -1.1751        -0.7624       1.8682
 Sum       30.9265       -0.4027      31.3292        -1.9388      32.8654

 Contributions to Isotropic shielding for atom  106 (    30.6196 ppm):
                         Standard Origin              Atomic Origin
 NLMO      Total    Paramagnetic  Diamagnetic   Paramagnetic  Diamagnetic
  121       0.2596       -0.2634       0.5230        -0.7802       1.0398
  123       1.8798       -2.7268       4.6066        -0.2149       2.0947
  124       1.7561       -1.0874       2.8435        -0.2398       1.9959
  125      25.8948        0.6180      25.2768         0.5889      25.3058
  126       1.0226        1.7652      -0.7426        -0.9579       1.9806
 Sum       30.8129       -1.6944      32.5073        -1.6038      32.4168

 Contributions to Isotropic shielding for atom  107 (    30.5403 ppm):
                         Standard Origin              Atomic Origin
 NLMO      Total    Paramagnetic  Diamagnetic   Paramagnetic  Diamagnetic
  120      -0.2388       -0.4027       0.1640        -1.1773       0.9385
  121       0.2097       -0.1414       0.3512        -1.3003       1.5100
  122      -1.0788        0.7893      -1.8682        -1.8404       0.7616
  123       0.2726        2.9001      -2.6275        -1.2152       1.4878
  124       1.4105        1.6583      -0.2478        -0.4598       1.8703
  125       1.5279        2.0252      -0.4973        -0.5018       2.0297
  126      26.3975        0.4397      25.9579         1.1004      25.2971
  193       1.1045       -1.2949       2.3994         1.1684      -0.0640
 Sum       29.6051        5.9736      23.6315        -4.2259      33.8310

 Contributions to Isotropic shielding for atom  108 (    30.6602 ppm):
                         Standard Origin              Atomic Origin
 NLMO      Total    Paramagnetic  Diamagnetic   Paramagnetic  Diamagnetic
   75      -0.5150        0.4870      -1.0020        -1.2287       0.7137
   76      -0.6569        0.1037      -0.7607        -2.0168       1.3598
   79      -0.2198        0.7842      -1.0040        -0.8538       0.6340
   82       1.9347       -2.1335       4.0681         0.7151       1.2196
  127      25.8743        0.3831      25.4911         0.5420      25.3323
  128       1.6350        2.3005      -0.6655        -0.3349       1.9700
  129       1.4281        1.8814      -0.4533        -0.3730       1.8012
 Sum       29.4803        3.8065      25.6738        -3.5502      33.0305

 Contributions to Isotropic shielding for atom  109 (    31.2493 ppm):
                         Standard Origin              Atomic Origin
 NLMO      Total    Paramagnetic  Diamagnetic   Paramagnetic  Diamagnetic
   76      -0.4594        0.0489      -0.5084        -1.2990       0.8396
   81      -0.6186        1.6184      -2.2370        -1.3542       0.7356
   82       1.1183       -0.5081       1.6264        -0.0921       1.2104
   87      -0.1730        0.7283      -0.9014        -1.0787       0.9057
   93      -0.0821       -1.1295       1.0475        -0.6756       0.5935
  119      -0.2124       -1.7020       1.4896        -0.7255       0.5131
  127       1.8447        2.2366      -0.3919        -0.1437       1.9883
  128      26.0335        0.1472      25.8863         0.6022      25.4313
  129       1.1192        2.8732      -1.7540        -0.6941       1.8133
  190       1.3129        0.0766       1.2362         1.3002       0.0126
 Sum       29.8830        4.3896      25.4934        -4.1606      34.0436

 Contributions to Isotropic shielding for atom  110 (    31.8576 ppm):
                         Standard Origin              Atomic Origin
 NLMO      Total    Paramagnetic  Diamagnetic   Paramagnetic  Diamagnetic
   75      -0.3262        0.7656      -1.0917        -0.9206       0.5944
   76      -1.0274        0.3701      -1.3975        -2.1908       1.1633
   79      -0.3711        1.1085      -1.4795        -0.9264       0.5553
   81      -0.4394        0.8764      -1.3159        -0.6925       0.2531
   82       1.3979       -1.1270       2.5249         0.6203       0.7776
   86      -0.0372        0.0072      -0.0445        -1.1083       1.0711
   93      -0.1376       -1.1422       1.0046        -0.9453       0.8077
  127       1.8974        2.0592      -0.1617        -0.0009       1.8983
  128       1.7697        3.5496      -1.7798        -0.1317       1.9014
  129      26.6987        0.4723      26.2264         0.9828      25.7159
 Sum       29.4248        6.9396      22.4852        -5.3133      34.7381
 
 1\1\GINC-PCSN02\SP\RHF\STO-3G\C45H56N4O5\ABENIDD\30-May-2024\0\\# nmr=
 giao hf/sto-3g pop=nbo geom=connectivity\\Pleiokomenine_C_2\\0,1\C,0,0
 .,0.,0.\C,0,1.4016,0.,0.\C,0,2.0809,1.237,0.\C,0,1.3855,2.4556,-0.0378
 \C,0,0.0025,2.4396,-0.0827\C,0,-0.6729,1.2104,-0.0463\N,0,-0.8911,3.53
 97,-0.1756\C,0,-2.1577,1.4657,-0.0074\C,0,-2.1354,2.8961,-0.6753\C,0,-
 3.1194,0.5563,-0.7873\C,0,-2.034,2.7246,-2.2544\C,0,-3.2519,1.9781,-2.
 8133\C,0,-4.0935,1.4414,-1.6389\N,0,-3.7408,-0.293,0.2345\C,0,-4.9406,
 -0.9949,-0.2033\C,0,-5.9443,-0.1465,-0.9829\C,0,-5.2684,0.5893,-2.1394
 \C,0,-2.5873,1.3078,1.4711\C,0,-3.8752,0.4938,1.4516\C,0,-4.6145,2.714
 ,-0.8869\C,0,-3.4552,3.6577,-0.4624\C,0,-3.6839,4.2692,0.9084\O,0,-4.4
 892,3.8603,1.7359\O,0,-2.9244,5.389,1.0692\C,0,-3.0583,6.0083,2.3481\C
 ,0,-0.3727,4.754,-0.7863\C,0,2.1841,-1.2964,0.073\C,0,1.6785,-2.3833,-
 0.8547\C,0,0.7338,-3.3132,-0.396\C,0,2.0834,-2.4076,-2.2072\C,0,1.5686
 ,-3.3508,-3.106\C,0,0.6339,-4.2613,-2.6506\C,0,0.2056,-4.215,-1.3045\N
 ,0,-0.0003,-5.3114,-3.37\C,0,-0.945,-5.1865,-1.1579\C,0,-0.4734,-6.187
 2,-2.2692\C,0,-1.1895,-5.9913,0.1061\C,0,0.808,-7.01,-1.7288\C,0,0.536
 7,-7.6674,-0.3723\C,0,-0.9524,-7.5033,-0.0265\N,0,-2.6257,-5.7035,0.50
 94\C,0,-2.7966,-6.1242,1.9306\C,0,-2.5809,-7.6494,2.0123\C,0,-1.2815,-
 8.1521,1.3407\C,0,-2.2019,-4.2717,-1.2601\C,0,-2.7586,-4.2641,0.176\C,
 0,-1.7182,-8.1289,-1.2435\C,0,-1.4909,-7.3128,-2.5682\C,0,-2.8035,-6.9
 96,-3.2672\O,0,-3.7599,-7.7652,-3.2867\O,0,-2.7405,-5.8593,-4.0072\C,0
 ,-3.9425,-5.5475,-4.7095\C,0,0.6775,-5.8493,-4.5345\O,0,-3.5833,-6.346
 5,-0.2319\H,0,-0.5718,-0.9209,0.0438\H,0,3.1684,1.2601,0.0304\H,0,1.93
 83,3.3879,-0.0372\H,0,-2.5665,-0.1095,-1.4642\H,0,-1.9632,3.7038,-2.74
 52\H,0,-1.1233,2.1874,-2.5472\H,0,-3.8479,2.6515,-3.4421\H,0,-2.916,1.
 1642,-3.4678\H,0,-4.6214,-1.8207,-0.852\H,0,-5.4379,-1.4705,0.6508\H,0
 ,-6.7324,-0.796,-1.3818\H,0,-6.4395,0.5637,-0.312\H,0,-4.9094,-0.1506,
 -2.8666\H,0,-6.0046,1.2103,-2.6634\H,0,-1.8472,0.7261,2.0398\H,0,-2.68
 52,2.2458,2.0159\H,0,-3.9402,-0.1504,2.335\H,0,-4.7556,1.1385,1.4544\H
 ,0,-5.2529,2.4436,-0.0457\H,0,-5.2776,3.2787,-1.5582\H,0,-3.4898,4.518
 5,-1.1481\H,0,-4.0779,6.3808,2.4868\H,0,-2.3708,6.8578,2.3864\H,0,-2.7
 878,5.3088,3.1454\H,0,0.1044,4.5577,-1.7531\H,0,0.3586,5.2316,-0.1254\
 H,0,-1.1756,5.4791,-0.9507\H,0,3.241,-1.1128,-0.1608\H,0,2.1673,-1.654
 7,1.1105\H,0,0.3783,-3.2758,0.6284\H,0,2.7955,-1.6696,-2.5718\H,0,1.89
 38,-3.344,-4.1397\H,0,-0.5739,-5.582,0.9211\H,0,1.7107,-6.3931,-1.642\
 H,0,1.0768,-7.7864,-2.4585\H,0,0.8239,-8.7256,-0.4044\H,0,1.1681,-7.20
 01,0.3943\H,0,-3.8124,-5.8439,2.2282\H,0,-2.0709,-5.5691,2.5338\H,0,-3
 .4292,-8.1591,1.5384\H,0,-2.5892,-7.959,3.0637\H,0,-1.3196,-9.2438,1.2
 436\H,0,-0.4601,-7.9377,2.038\H,0,-2.0135,-3.2451,-1.5957\H,0,-2.954,-
 4.6845,-1.9324\H,0,-3.8119,-3.9781,0.2419\H,0,-2.1464,-3.6921,0.8801\H
 ,0,-2.7767,-8.2891,-1.0264\H,0,-1.3335,-9.1465,-1.407\H,0,-1.0171,-8.0
 01,-3.2854\H,0,-4.7844,-5.4575,-4.0156\H,0,-3.8028,-4.5841,-5.2075\H,0
 ,-4.146,-6.3054,-5.4722\H,0,0.7409,-5.0951,-5.3262\H,0,0.1163,-6.6934,
 -4.9472\H,0,1.6898,-6.1948,-4.2985\\Version=ES64L-G16RevB.01\State=1-A
 \HF=-2300.1987189\RMSD=3.957e-09\Dipole=1.1764853,1.1589304,0.140353\Q
 uadrupole=-6.2607989,0.879436,5.3813629,-17.1317195,0.0303515,-7.59584
 26\PG=C01 [X(C45H56N4O5)]\\@


 The chemist is a guest at the physicist's table and
 frequently dines well.
                   -- Richard Bersohn
 Job cpu time:       0 days  0 hours 11 minutes 34.2 seconds.
 Elapsed time:       0 days  0 hours  1 minutes 57.0 seconds.
 File lengths (MBytes):  RWF=     67 Int=      0 D2E=      0 Chk=     10 Scr=      1
 Normal termination of Gaussian 16 at Thu May 30 09:45:26 2024.
