 Entering Gaussian System, Link 0=g16
 Input=2_pleiokomenine_2a_c_10.gjf
 Output=2_pleiokomenine_2a_c_10.log
 Initial command:
 /opt/gaussian/g16/l1.exe "/data/abenidd/Elvis/pleiokomenine_C/NMR_HF/2a/2_pleiokomenine_2a_c_10/Gau-26742.inp" -scrdir="/data/abenidd/Elvis/pleiokomenine_C/NMR_HF/2a/2_pleiokomenine_2a_c_10/"
 Entering Link 1 = /opt/gaussian/g16/l1.exe PID=     26744.
  
 Copyright (c) 1988-2017, Gaussian, Inc.  All Rights Reserved.
  
 This is part of the Gaussian(R) 16 program.  It is based on
 the Gaussian(R) 09 system (copyright 2009, Gaussian, Inc.),
 the Gaussian(R) 03 system (copyright 2003, Gaussian, Inc.),
 the Gaussian(R) 98 system (copyright 1998, Gaussian, Inc.),
 the Gaussian(R) 94 system (copyright 1995, Gaussian, Inc.),
 the Gaussian 92(TM) system (copyright 1992, Gaussian, Inc.),
 the Gaussian 90(TM) system (copyright 1990, Gaussian, Inc.),
 the Gaussian 88(TM) system (copyright 1988, Gaussian, Inc.),
 the Gaussian 86(TM) system (copyright 1986, Carnegie Mellon
 University), and the Gaussian 82(TM) system (copyright 1983,
 Carnegie Mellon University). Gaussian is a federally registered
 trademark of Gaussian, Inc.
  
 This software contains proprietary and confidential information,
 including trade secrets, belonging to Gaussian, Inc.
  
 This software is provided under written license and may be
 used, copied, transmitted, or stored only in accord with that
 written license.
  
 The following legend is applicable only to US Government
 contracts under FAR:
  
                    RESTRICTED RIGHTS LEGEND
  
 Use, reproduction and disclosure by the US Government is
 subject to restrictions as set forth in subparagraphs (a)
 and (c) of the Commercial Computer Software - Restricted
 Rights clause in FAR 52.227-19.
  
 Gaussian, Inc.
 340 Quinnipiac St., Bldg. 40, Wallingford CT 06492
  
  
 ---------------------------------------------------------------
 Warning -- This program may not be used in any manner that
 competes with the business of Gaussian, Inc. or will provide
 assistance to any competitor of Gaussian, Inc.  The licensee
 of this program is prohibited from giving any competitor of
 Gaussian, Inc. access to this program.  By using this program,
 the user acknowledges that Gaussian, Inc. is engaged in the
 business of creating and licensing software in the field of
 computational chemistry and represents and warrants to the
 licensee that it is not a competitor of Gaussian, Inc. and that
 it will not use this program in any manner prohibited above.
 ---------------------------------------------------------------
  

 Cite this work as:
 Gaussian 16, Revision B.01,
 M. J. Frisch, G. W. Trucks, H. B. Schlegel, G. E. Scuseria, 
 M. A. Robb, J. R. Cheeseman, G. Scalmani, V. Barone, 
 G. A. Petersson, H. Nakatsuji, X. Li, M. Caricato, A. V. Marenich, 
 J. Bloino, B. G. Janesko, R. Gomperts, B. Mennucci, H. P. Hratchian, 
 J. V. Ortiz, A. F. Izmaylov, J. L. Sonnenberg, D. Williams-Young, 
 F. Ding, F. Lipparini, F. Egidi, J. Goings, B. Peng, A. Petrone, 
 T. Henderson, D. Ranasinghe, V. G. Zakrzewski, J. Gao, N. Rega, 
 G. Zheng, W. Liang, M. Hada, M. Ehara, K. Toyota, R. Fukuda, 
 J. Hasegawa, M. Ishida, T. Nakajima, Y. Honda, O. Kitao, H. Nakai, 
 T. Vreven, K. Throssell, J. A. Montgomery, Jr., J. E. Peralta, 
 F. Ogliaro, M. J. Bearpark, J. J. Heyd, E. N. Brothers, K. N. Kudin, 
 V. N. Staroverov, T. A. Keith, R. Kobayashi, J. Normand, 
 K. Raghavachari, A. P. Rendell, J. C. Burant, S. S. Iyengar, 
 J. Tomasi, M. Cossi, J. M. Millam, M. Klene, C. Adamo, R. Cammi, 
 J. W. Ochterski, R. L. Martin, K. Morokuma, O. Farkas, 
 J. B. Foresman, and D. J. Fox, Gaussian, Inc., Wallingford CT, 2016.
 
 ******************************************
 Gaussian 16:  ES64L-G16RevB.01 20-Dec-2017
                30-May-2024 
 ******************************************
 %nprocshared=8
 Will use up to    8 processors via shared memory.
 ----------------------------------------------
 # nmr=giao hf/sto-3g pop=nbo geom=connectivity
 ----------------------------------------------
 1/38=1,57=2,172=1/1;
 2/12=2,17=6,18=5,40=1/2;
 3/6=3,11=9,25=1,30=1/1,2,3,8;
 4//1;
 5/5=2,38=5/2;
 8/6=1,10=90,11=11/1;
 10/13=100,45=16/2;
 6/7=2,8=2,9=2,10=2,28=1,40=1,64=1/1,7;
 99/9=1/99;
 -----------------
 Pleiokomenine_C_2
 -----------------
 Symbolic Z-matrix:
 Charge =  0 Multiplicity = 1
 C                     0.        0.        0. 
 C                     1.403     0.        0. 
 C                     2.0917    1.2324    0. 
 C                     1.4059    2.4539   -0.0487 
 C                     0.0243    2.4421   -0.1096 
 C                    -0.6647    1.2138   -0.0695 
 N                    -0.862     3.5488   -0.2348 
 C                    -2.1447    1.5061   -0.0409 
 C                    -2.0886    2.8998   -0.7667 
 C                    -3.1491    0.6111   -0.7685 
 C                    -1.8843    2.6689   -2.3349 
 C                    -3.0003    1.8138   -2.9345 
 C                    -3.9678    1.388    -1.8254 
 N                    -4.0961    0.2187    0.2733 
 C                    -4.988    -0.8365   -0.1485 
 C                    -5.8708   -0.2606   -1.2688 
 C                    -5.0681    0.4491   -2.3754 
 C                    -2.5546    1.3843    1.4506 
 C                    -3.3527    0.079     1.5024 
 C                    -4.5553    2.7048   -1.2041 
 C                    -3.429     3.6606   -0.6853 
 C                    -3.7842    4.3052    0.645 
 O                    -4.7745    4.0424    1.3158 
 O                    -2.9028    5.2972    0.9535 
 C                    -3.1566    5.9406    2.202 
 C                    -0.3272    4.7607   -0.8346 
 C                     2.185    -1.2997    0.0571 
 C                     1.6397   -2.4112   -0.8198 
 C                     1.3687   -2.1797   -2.1772 
 C                     1.4172   -3.6951   -0.2748 
 C                     0.8822   -4.7346   -1.0467 
 C                     0.5568   -4.4816   -2.3652 
 C                     0.8228   -3.2103   -2.9239 
 N                    -0.0873   -5.3396   -3.2971 
 C                     0.4678   -3.2736   -4.3931 
 C                    -0.6549   -4.3625   -4.254 
 C                    -0.1339   -2.0996   -5.1455 
 C                    -1.9551   -3.7063   -3.5519 
 C                    -2.3982   -2.4217   -4.257 
 C                    -1.6019   -2.2717   -5.5629 
 N                     0.7505   -1.8906   -6.3642 
 C                     0.4663   -0.5292   -6.9066 
 C                    -1.0021   -0.4912   -7.3769 
 C                    -2.0243   -0.996    -6.3319 
 C                     1.84     -3.4962   -5.0921 
 C                     2.1012   -2.1611   -5.8119 
 C                    -1.8489   -3.6085   -6.3434 
 C                    -1.2163   -4.8492   -5.6094 
 C                    -0.291    -5.6907   -6.4757 
 O                     0.6579   -6.3501   -6.0717 
 O                    -0.7613   -5.7528   -7.7567 
 C                     0.0827   -6.4774   -8.6496 
 C                    -0.8593   -6.4596   -2.7967 
 O                     0.5728   -2.7905   -7.3852 
 H                    -0.5583   -0.9302    0.0538 
 H                     3.1795    1.2473    0.0378 
 H                     1.963     3.3836   -0.0481 
 H                    -2.6514   -0.2642   -1.2084 
 H                    -0.9208    2.1976   -2.5659 
 H                    -1.8563    3.6351   -2.8562 
 H                    -3.5262    2.3775   -3.715 
 H                    -2.5617    0.9383   -3.4275 
 H                    -4.438    -1.7176   -0.5 
 H                    -5.6337   -1.1557    0.6774 
 H                    -6.4731   -1.0627   -1.7109 
 H                    -6.5792    0.4561   -0.8334 
 H                    -4.6008   -0.3257   -2.9975 
 H                    -5.7529    1.0011   -3.0301 
 H                    -1.716     1.3478    2.1561 
 H                    -3.1968    2.2019    1.7742 
 H                    -2.6974   -0.7991    1.4976 
 H                    -3.9983    0.0441    2.3849 
 H                    -5.274     2.4647   -0.4139 
 H                    -5.1352    3.2373   -1.9703 
 H                    -3.402     4.511    -1.3839 
 H                    -3.1402    5.2143    3.0207 
 H                    -4.1138    6.4701    2.1705 
 H                    -2.3618    6.6717    2.3735 
 H                     0.1736    4.5619   -1.7888 
 H                     0.3882    5.2385   -0.1568 
 H                    -1.1247    5.4864   -1.0211 
 H                     3.2254   -1.1272   -0.2468 
 H                     2.2109   -1.6208    1.1061 
 H                     1.5739   -1.2118   -2.6225 
 H                     1.6509   -3.8912    0.7701 
 H                     0.7107   -5.7066   -0.5993 
 H                    -0.0172   -1.1855   -4.5442 
 H                    -1.8088   -3.4847   -2.4877 
 H                    -2.7807   -4.4314   -3.5682 
 H                    -3.4779   -2.4514   -4.448 
 H                    -2.225    -1.5636   -3.5955 
 H                     1.1603   -0.364    -7.7374 
 H                     0.6661    0.1968   -6.1118 
 H                    -1.1068   -1.1039   -8.281 
 H                    -1.2602    0.5324   -7.6717 
 H                    -2.1692   -0.1816   -5.61 
 H                    -2.9964   -1.1486   -6.8161 
 H                     2.6755   -3.7306   -4.4223 
 H                     1.8021   -4.2969   -5.8297 
 H                     2.3598   -1.3437   -5.1314 
 H                     2.8182   -2.2345   -6.6346 
 H                    -1.5463   -3.5283   -7.3892 
 H                    -2.9347   -3.7754   -6.4042 
 H                    -2.043    -5.5469   -5.4051 
 H                     0.0933   -7.5391   -8.385 
 H                    -0.3259   -6.3762   -9.6589 
 H                     1.0971   -6.0655   -8.6461 
 H                    -1.3322   -6.9978   -3.624 
 H                    -0.2106   -7.1768   -2.2825 
 H                    -1.6453   -6.1394   -2.1042 
 
 Stoichiometry    C45H56N4O5
 Framework group  C1[X(C45H56N4O5)]
 Deg. of freedom   324
 Full point group                 C1      NOp   1
 Largest Abelian subgroup         C1      NOp   1
 Largest concise Abelian subgroup C1      NOp   1
                         Standard orientation:                         
 ---------------------------------------------------------------------
 Center     Atomic      Atomic             Coordinates (Angstroms)
 Number     Number       Type             X           Y           Z
 ---------------------------------------------------------------------
      1          6           0       -1.829503    2.298689    0.234797
      2          6           0       -1.445849    3.403352   -0.540405
      3          6           0       -2.180704    3.716355   -1.704507
      4          6           0       -3.253870    2.920537   -2.128472
      5          6           0       -3.586086    1.799123   -1.390413
      6          6           0       -2.878580    1.508691   -0.207140
      7          7           0       -4.581923    0.821831   -1.671833
      8          6           0       -3.519507    0.305837    0.440172
      9          6           0       -4.110234   -0.335845   -0.868117
     10          6           0       -2.684696   -0.746152    1.172055
     11          6           0       -2.935160   -1.053764   -1.679350
     12          6           0       -2.237989   -2.125811   -0.842189
     13          6           0       -2.852815   -2.156487    0.560848
     14          7           0       -3.278327   -0.806456    2.506259
     15          6           0       -2.477265   -1.560331    3.442647
     16          6           0       -2.474090   -3.021009    2.960487
     17          6           0       -2.118505   -3.171431    1.469347
     18          6           0       -4.440317    0.882403    1.547920
     19          6           0       -3.712025    0.527270    2.846737
     20          6           0       -4.374762   -2.498835    0.383065
     21          6           0       -5.095795   -1.484901   -0.567360
     22          6           0       -6.478485   -1.102580   -0.063998
     23          8           0       -6.957180   -1.439144    1.011784
     24          8           0       -7.166711   -0.411810   -1.015462
     25          6           0       -8.471417    0.002494   -0.611449
     26          6           0       -4.981590    0.664933   -3.061121
     27          6           0       -0.292867    4.294398   -0.115346
     28          6           0        0.919751    3.556405    0.420060
     29          6           0        1.491277    2.502140   -0.308947
     30          6           0        1.491819    3.940379    1.653038
     31          6           0        2.589963    3.258817    2.193563
     32          6           0        3.107035    2.180584    1.501908
     33          6           0        2.564568    1.825152    0.245524
     34          7           0        4.135929    1.285317    1.901085
     35          6           0        3.401416    0.693876   -0.309886
     36          6           0        3.826166    0.094223    1.077742
     37          6           0        2.811438   -0.440497   -1.129367
     38          6           0        2.555425   -0.638899    1.757311
     39          6           0        1.897427   -1.641169    0.805369
     40          6           0        2.790785   -1.809657   -0.433780
     41          7           0        3.632075   -0.499341   -2.407713
     42          6           0        2.861826   -1.295158   -3.408597
     43          6           0        2.715598   -2.734807   -2.874882
     44          6           0        2.183671   -2.831531   -1.425939
     45          6           0        4.365168    1.404851   -1.303255
     46          6           0        3.870803    0.939083   -2.684375
     47          6           0        4.195578   -2.214210    0.132008
     48          6           0        4.855072   -1.053915    0.966908
     49          6           0        6.261180   -0.678015    0.523806
     50          8           0        6.770839    0.429227    0.636493
     51          8           0        6.952041   -1.789680    0.132767
     52          6           0        8.264397   -1.515172   -0.354076
     53          6           0        4.461869    1.179935    3.309432
     54          8           0        4.873656   -1.071959   -2.287615
     55          1           0       -1.317828    2.063764    1.163702
     56          1           0       -1.917212    4.592289   -2.294653
     57          1           0       -3.798323    3.186584   -3.027078
     58          1           0       -1.627484   -0.450017    1.216508
     59          1           0       -2.179257   -0.343246   -2.036550
     60          1           0       -3.336728   -1.517850   -2.590090
     61          1           0       -2.333113   -3.103490   -1.330660
     62          1           0       -1.164749   -1.907382   -0.793572
     63          1           0       -1.454748   -1.169979    3.509532
     64          1           0       -2.913066   -1.523918    4.447475
     65          1           0       -1.771183   -3.605877    3.564997
     66          1           0       -3.467396   -3.456182    3.130866
     67          1           0       -1.034952   -3.025017    1.368504
     68          1           0       -2.324223   -4.198105    1.143910
     69          1           0       -4.609352    1.964137    1.487994
     70          1           0       -5.423645    0.414871    1.557316
     71          1           0       -2.872157    1.203749    3.040383
     72          1           0       -4.394917    0.544144    3.701253
     73          1           0       -4.868237   -2.555597    1.358695
     74          1           0       -4.469909   -3.504822   -0.048025
     75          1           0       -5.303910   -2.032444   -1.499474
     76          1           0       -8.416864    0.631713    0.282507
     77          1           0       -9.110803   -0.868178   -0.436205
     78          1           0       -8.905220    0.593088   -1.423015
     79          1           0       -4.119967    0.535381   -3.725682
     80          1           0       -5.552859    1.537714   -3.394901
     81          1           0       -5.630752   -0.207597   -3.182398
     82          1           0        0.045786    4.902856   -0.963660
     83          1           0       -0.678211    4.991084    0.639847
     84          1           0        1.091034    2.221927   -1.277717
     85          1           0        1.072136    4.775015    2.211729
     86          1           0        3.001226    3.567561    3.147451
     87          1           0        1.795784   -0.165233   -1.450981
     88          1           0        1.787301    0.060566    2.109116
     89          1           0        2.882665   -1.163639    2.665723
     90          1           0        1.739676   -2.598018    1.317884
     91          1           0        0.902848   -1.275618    0.520587
     92          1           0        3.429151   -1.267774   -4.344838
     93          1           0        1.893043   -0.805741   -3.552245
     94          1           0        3.691465   -3.234665   -2.914723
     95          1           0        2.056129   -3.301707   -3.541970
     96          1           0        1.098396   -2.672809   -1.474624
     97          1           0        2.324322   -3.853130   -1.052751
     98          1           0        4.365072    2.499975   -1.254880
     99          1           0        5.399666    1.090424   -1.170739
    100          1           0        2.918600    1.390613   -2.980225
    101          1           0        4.618264    1.033721   -3.477254
    102          1           0        4.849276   -2.605555   -0.649800
    103          1           0        4.060373   -3.073813    0.805296
    104          1           0        5.028378   -1.454958    1.977396
    105          1           0        8.902950   -1.153806    0.457711
    106          1           0        8.685861   -2.448939   -0.736605
    107          1           0        8.231124   -0.791040   -1.174569
    108          1           0        5.234902    0.421454    3.467056
    109          1           0        4.866242    2.126335    3.684131
    110          1           0        3.589226    0.908533    3.913349
 ---------------------------------------------------------------------
 Rotational constants (GHZ):           0.1013902           0.0332902           0.0317877
 Standard basis: STO-3G (5D, 7F)
 There are   326 symmetry adapted cartesian basis functions of A   symmetry.
 There are   326 symmetry adapted basis functions of A   symmetry.
   326 basis functions,   978 primitive gaussians,   326 cartesian basis functions
   197 alpha electrons      197 beta electrons
       nuclear repulsion energy      8230.5664385076 Hartrees.
 NAtoms=  110 NActive=  110 NUniq=  110 SFac= 1.00D+00 NAtFMM=   60 NAOKFM=T Big=T
 Integral buffers will be    131072 words long.
 Raffenetti 1 integral format.
 Two-electron integral symmetry is turned on.
 One-electron integrals computed using PRISM.
 NBasis=   326 RedAO= T EigKep=  1.73D-01  NBF=   326
 NBsUse=   326 1.00D-06 EigRej= -1.00D+00 NBFU=   326
 ExpMin= 1.69D-01 ExpMax= 1.31D+02 ExpMxC= 1.31D+02 IAcc=3 IRadAn=         5 AccDes= 0.00D+00
 Harris functional with IExCor=  205 and IRadAn=       5 diagonalized for initial guess.
 HarFok:  IExCor=  205 AccDes= 0.00D+00 IRadAn=         5 IDoV= 1 UseB2=F ITyADJ=14
 ICtDFT=  3500011 ScaDFX=  1.000000  1.000000  1.000000  1.000000
 FoFCou: FMM=F IPFlag=           0 FMFlag=      100000 FMFlg1=        2001
         NFxFlg=           0 DoJE=T BraDBF=F KetDBF=T FulRan=T
         wScrn=  0.000000 ICntrl=       500 IOpCl=  0 I1Cent=   200000004 NGrid=           0
         NMat0=    1 NMatS0=      1 NMatT0=    0 NMatD0=    1 NMtDS0=    0 NMtDT0=    0
 Petite list used in FoFCou.
 Requested convergence on RMS density matrix=1.00D-08 within 128 cycles.
 Requested convergence on MAX density matrix=1.00D-06.
 Requested convergence on             energy=1.00D-06.
 No special actions if energy rises.
 Integral accuracy reduced to 1.0D-05 until final iterations.
 Initial convergence to 1.0D-05 achieved.  Increase integral accuracy.
 SCF Done:  E(RHF) =  -2300.19552995     A.U. after   16 cycles
            NFock= 16  Conv=0.41D-08     -V/T= 2.0093
 Range of M.O.s used for correlation:     1   326
 NBasis=   326 NAE=   197 NBE=   197 NFC=     0 NFV=     0
 NROrb=    326 NOA=   197 NOB=   197 NVA=   129 NVB=   129
          Differentiating once with respect to magnetic field using GIAOs.
          Electric field/nuclear overlap derivatives assumed to be zero.
 FoFCou: FMM=F IPFlag=           0 FMFlag=      100000 FMFlg1=        2001
         NFxFlg=           0 DoJE=F BraDBF=F KetDBF=T FulRan=T
         wScrn=  0.000000 ICntrl=      6100 IOpCl=  0 I1Cent=           7 NGrid=         110
         NMat0=    1 NMatS0=      1 NMatT0=    0 NMatD0=    1 NMtDS0=    0 NMtDT0=    0
 Symmetry not used in FoFCou.
 FoFJK:  IHMeth= 1 ICntrl=    6127 DoSepK=F KAlg= 0 I1Cent=           0 FoldK=F
 IRaf=         1 NMat=       1 IRICut=       1 DoRegI=T DoRafI=F ISym2E= 0 IDoP0=0 IntGTp=1.
          There are     3 degrees of freedom in the 1st order CPHF.  IDoFFX=0 NUNeed=     3.
      3 vectors produced by pass  0 Test12= 8.47D-13 3.33D-08 XBig12= 1.61D+02 2.71D+00.
 AX will form     3 AO Fock derivatives at one time.
      3 vectors produced by pass  1 Test12= 8.47D-13 3.33D-08 XBig12= 7.79D-01 3.08D-01.
      3 vectors produced by pass  2 Test12= 8.47D-13 3.33D-08 XBig12= 1.72D-02 4.10D-02.
      3 vectors produced by pass  3 Test12= 8.47D-13 3.33D-08 XBig12= 4.49D-04 8.60D-03.
      3 vectors produced by pass  4 Test12= 8.47D-13 3.33D-08 XBig12= 1.88D-05 8.10D-04.
      3 vectors produced by pass  5 Test12= 8.47D-13 3.33D-08 XBig12= 2.95D-07 8.94D-05.
      3 vectors produced by pass  6 Test12= 8.47D-13 3.33D-08 XBig12= 6.26D-09 2.47D-05.
      3 vectors produced by pass  7 Test12= 8.47D-13 3.33D-08 XBig12= 2.72D-10 4.44D-06.
      3 vectors produced by pass  8 Test12= 8.47D-13 3.33D-08 XBig12= 6.28D-12 4.09D-07.
      2 vectors produced by pass  9 Test12= 8.47D-13 3.33D-08 XBig12= 1.34D-13 1.10D-07.
 InvSVY:  IOpt=1 It=  1 EMax= 5.33D-15
 Solved reduced A of dimension    29 with     3 vectors.
 Calculating GIAO nuclear magnetic shielding tensors.
 SCF GIAO Magnetic shielding tensor (ppm):
      1  C    Isotropic =   126.5034   Anisotropy =   152.2823
   XX=   148.4914   YX=   -34.0018   ZX=   -62.6736
   XY=   -30.9917   YY=   148.8752   ZY=    48.5518
   XZ=   -72.8061   YZ=    48.5260   ZZ=    82.1436
   Eigenvalues:    33.9496   117.5356   228.0249
      2  C    Isotropic =   118.3306   Anisotropy =   161.6332
   XX=   119.1268   YX=   -73.3867   ZX=   -45.3681
   XY=   -76.4372   YY=   116.2315   ZY=    32.4396
   XZ=   -58.3204   YZ=    31.5694   ZZ=   119.6333
   Eigenvalues:    39.5760    89.3296   226.0860
      3  C    Isotropic =   118.9292   Anisotropy =   151.8990
   XX=   150.7783   YX=   -53.9098   ZX=   -24.8550
   XY=   -61.7326   YY=    88.0295   ZY=    65.5772
   XZ=   -27.2122   YZ=    67.3060   ZZ=   117.9798
   Eigenvalues:    26.7096   109.8829   220.1952
      4  C    Isotropic =   133.5198   Anisotropy =   143.8259
   XX=   147.6254   YX=   -30.0156   ZX=   -65.3178
   XY=   -32.7395   YY=   151.3151   ZY=    42.0293
   XZ=   -63.2843   YZ=    51.4659   ZZ=   101.6189
   Eigenvalues:    51.2868   119.8689   229.4037
      5  C    Isotropic =   108.3493   Anisotropy =   129.3626
   XX=   106.6523   YX=   -67.0579   ZX=   -42.7654
   XY=   -52.2155   YY=   111.6917   ZY=    19.4468
   XZ=   -51.0759   YZ=    20.2277   ZZ=   106.7039
   Eigenvalues:    41.1089    89.3479   194.5911
      6  C    Isotropic =   117.8860   Anisotropy =   142.8044
   XX=   137.4730   YX=   -46.9898   ZX=   -40.9301
   XY=   -51.3948   YY=   103.4594   ZY=    55.0727
   XZ=   -31.6252   YZ=    58.2235   ZZ=   112.7256
   Eigenvalues:    48.9195    91.6495   213.0890
      7  N    Isotropic =   272.4570   Anisotropy =    82.6488
   XX=   266.1227   YX=    27.5352   ZX=    12.7120
   XY=    29.3610   YY=   312.5206   ZY=    17.7466
   XZ=    -0.9960   YZ=     2.4696   ZZ=   238.7277
   Eigenvalues:   237.1434   252.6714   327.5562
      8  C    Isotropic =   198.4319   Anisotropy =    13.3694
   XX=   201.7912   YX=    -2.5140   ZX=    -0.2419
   XY=    -3.4422   YY=   190.1632   ZY=     0.2384
   XZ=     8.4855   YZ=    -3.4907   ZZ=   203.3412
   Eigenvalues:   189.4146   198.5362   207.3448
      9  C    Isotropic =   180.2375   Anisotropy =    42.9740
   XX=   172.7023   YX=   -10.4152   ZX=    20.4609
   XY=     7.8863   YY=   187.3600   ZY=   -21.3817
   XZ=    21.8909   YZ=   -14.0366   ZZ=   180.6503
   Eigenvalues:   151.7043   180.1214   208.8868
     10  C    Isotropic =   189.5685   Anisotropy =    30.9790
   XX=   182.5526   YX=    -9.2579   ZX=    -5.0096
   XY=    -2.2546   YY=   176.6793   ZY=    -0.3843
   XZ=    -3.9540   YZ=     0.1885   ZZ=   209.4737
   Eigenvalues:   172.9879   185.4965   210.2212
     11  C    Isotropic =   212.8807   Anisotropy =    21.2580
   XX=   217.2191   YX=    -7.4844   ZX=   -11.1431
   XY=   -10.3735   YY=   211.2256   ZY=     2.3742
   XZ=    -3.3747   YZ=     3.2848   ZZ=   210.1974
   Eigenvalues:   203.7522   207.8372   227.0527
     12  C    Isotropic =   214.7233   Anisotropy =    17.2013
   XX=   213.8170   YX=    -3.3595   ZX=    -3.5953
   XY=    -1.2967   YY=   206.5513   ZY=    -4.4559
   XZ=    -5.2422   YZ=    -5.1008   ZZ=   223.8015
   Eigenvalues:   204.0743   213.9047   226.1908
     13  C    Isotropic =   211.1365   Anisotropy =     7.1954
   XX=   213.9092   YX=    -2.6775   ZX=    -0.6589
   XY=    -1.5186   YY=   212.5070   ZY=    -2.4394
   XZ=     2.7648   YZ=    -1.8603   ZZ=   206.9934
   Eigenvalues:   206.2399   211.2362   215.9334
     14  N    Isotropic =   301.2110   Anisotropy =    59.2667
   XX=   265.2059   YX=   -31.4007   ZX=   -15.6525
   XY=   -36.6587   YY=   299.6390   ZY=    -3.0327
   XZ=    -6.9613   YZ=    -2.1748   ZZ=   338.7880
   Eigenvalues:   243.0206   319.8902   340.7221
     15  C    Isotropic =   202.6408   Anisotropy =    37.9390
   XX=   197.4841   YX=    -9.6282   ZX=    11.4846
   XY=    -9.6670   YY=   206.1788   ZY=   -15.5925
   XZ=    12.4797   YZ=   -14.4705   ZZ=   204.2594
   Eigenvalues:   188.0788   191.9100   227.9334
     16  C    Isotropic =   219.6435   Anisotropy =     8.0402
   XX=   211.7383   YX=    -3.1947   ZX=    -1.1082
   XY=     0.2103   YY=   224.7102   ZY=    -0.4817
   XZ=    -3.9261   YZ=     0.9289   ZZ=   222.4820
   Eigenvalues:   211.0326   222.8942   225.0036
     17  C    Isotropic =   214.3097   Anisotropy =    21.1877
   XX=   210.7823   YX=    -5.1258   ZX=     3.3424
   XY=    -8.0367   YY=   213.5707   ZY=   -10.5509
   XZ=     3.7515   YZ=    -8.1122   ZZ=   218.5760
   Eigenvalues:   204.2592   210.2351   228.4348
     18  C    Isotropic =   209.5849   Anisotropy =    31.4070
   XX=   200.3631   YX=   -18.3199   ZX=    -9.1506
   XY=   -12.5520   YY=   201.9320   ZY=     2.9857
   XZ=    -9.5315   YZ=    -2.7060   ZZ=   226.4596
   Eigenvalues:   184.5927   213.6392   230.5229
     19  C    Isotropic =   200.2111   Anisotropy =    40.2424
   XX=   188.4885   YX=   -18.6175   ZX=     0.7111
   XY=   -22.3155   YY=   215.4569   ZY=     8.3080
   XZ=    -3.0501   YZ=    -0.2258   ZZ=   196.6880
   Eigenvalues:   177.4219   196.1721   227.0394
     20  C    Isotropic =   212.3219   Anisotropy =    22.2386
   XX=   225.2868   YX=     0.1252   ZX=     6.7342
   XY=     0.2903   YY=   211.0724   ZY=    -6.1277
   XZ=     6.9994   YZ=    -4.1896   ZZ=   200.6067
   Eigenvalues:   197.0094   212.8087   227.1477
     21  C    Isotropic =   208.3237   Anisotropy =    12.4421
   XX=   215.9616   YX=    -1.4753   ZX=     0.6253
   XY=     3.6918   YY=   209.5970   ZY=    -1.6556
   XZ=    -6.3354   YZ=     1.3510   ZZ=   199.4123
   Eigenvalues:   198.9335   209.4190   216.6184
     22  C    Isotropic =    97.3168   Anisotropy =    99.0195
   XX=    26.5559   YX=    70.3239   ZX=   -31.9092
   XY=    79.1883   YY=   118.0431   ZY=    15.5925
   XZ=   -52.1340   YZ=    22.9716   ZZ=   147.3514
   Eigenvalues:   -27.4931   156.1138   163.3298
     23  O    Isotropic =  -136.9805   Anisotropy =   888.5544
   XX=  -236.7310   YX=   183.6344   ZX=   188.9969
   XY=   184.5834   YY=   223.4213   ZY=   336.8569
   XZ=   173.9123   YZ=   334.4397   ZZ=  -397.6317
   Eigenvalues:  -575.2732  -291.0574   455.3892
     24  O    Isotropic =   284.5732   Anisotropy =   138.3058
   XX=   193.2405   YX=    52.5135   ZX=    55.9878
   XY=   -20.9365   YY=   359.0730   ZY=     9.4425
   XZ=   170.4018   YZ=   -47.9822   ZZ=   301.4060
   Eigenvalues:   119.5380   357.4044   376.7771
     25  C    Isotropic =   197.3549   Anisotropy =    58.1010
   XX=   228.7886   YX=   -15.5234   ZX=   -10.8799
   XY=   -15.9712   YY=   182.9502   ZY=     4.5464
   XZ=   -10.8098   YZ=     3.8092   ZZ=   180.3259
   Eigenvalues:   177.2258   178.7499   236.0889
     26  C    Isotropic =   209.8462   Anisotropy =    41.4969
   XX=   204.4014   YX=     2.2151   ZX=    12.1406
   XY=    -0.0944   YY=   192.6227   ZY=     2.6435
   XZ=    13.0782   YZ=     2.4482   ZZ=   232.5147
   Eigenvalues:   192.4525   199.5754   237.5109
     27  C    Isotropic =   206.2493   Anisotropy =    21.0641
   XX=   213.5226   YX=    -0.6779   ZX=     9.9872
   XY=     0.7065   YY=   207.4005   ZY=     0.0263
   XZ=    14.6761   YZ=    -0.4757   ZZ=   197.8248
   Eigenvalues:   191.0536   207.4023   220.2920
     28  C    Isotropic =   118.6694   Anisotropy =   162.3778
   XX=   110.9682   YX=    75.4393   ZX=   -42.3624
   XY=    78.0146   YY=   134.2655   ZY=   -31.1902
   XZ=   -53.9689   YZ=   -31.9809   ZZ=   110.7744
   Eigenvalues:    40.0857    89.0012   226.9213
     29  C    Isotropic =   127.5882   Anisotropy =   151.9404
   XX=   152.1861   YX=    38.9291   ZX=   -51.4334
   XY=    33.0359   YY=   157.9590   ZY=   -53.4585
   XZ=   -60.1796   YZ=   -52.2933   ZZ=    72.6196
   Eigenvalues:    34.7020   119.1809   228.8818
     30  C    Isotropic =   118.6143   Anisotropy =   151.9215
   XX=   138.5644   YX=    68.8108   ZX=   -13.9093
   XY=    72.5350   YY=   104.3874   ZY=   -60.4102
   XZ=   -14.8028   YZ=   -64.9926   ZZ=   112.8912
   Eigenvalues:    26.0761   109.8716   219.8954
     31  C    Isotropic =   133.8696   Anisotropy =   144.5400
   XX=   155.3418   YX=    36.7035   ZX=   -52.4993
   XY=    38.8661   YY=   159.3668   ZY=   -41.5303
   XZ=   -53.2061   YZ=   -53.3530   ZZ=    86.9003
   Eigenvalues:    51.5353   119.8439   230.2296
     32  C    Isotropic =   108.0717   Anisotropy =   131.5450
   XX=   108.1358   YX=    67.3625   ZX=   -41.3368
   XY=    55.2242   YY=   122.3870   ZY=   -16.5268
   XZ=   -50.4517   YZ=   -16.8656   ZZ=    93.6924
   Eigenvalues:    40.1457    88.3011   195.7684
     33  C    Isotropic =   117.6941   Anisotropy =   143.3212
   XX=   133.8845   YX=    53.2620   ZX=   -34.1726
   XY=    60.1936   YY=   112.5287   ZY=   -54.0697
   XZ=   -24.4391   YZ=   -55.8274   ZZ=   106.6690
   Eigenvalues:    48.6032    91.2374   213.2415
     34  N    Isotropic =   272.9136   Anisotropy =    84.4667
   XX=   269.1324   YX=   -29.4641   ZX=    15.1447
   XY=   -31.2425   YY=   310.7614   ZY=   -19.5430
   XZ=    -0.3919   YZ=    -6.4830   ZZ=   238.8471
   Eigenvalues:   236.3614   253.1548   329.2248
     35  C    Isotropic =   200.8584   Anisotropy =    15.5161
   XX=   207.0244   YX=     2.6108   ZX=    -0.2370
   XY=     4.2923   YY=   190.8198   ZY=     1.0681
   XZ=     8.6131   YZ=     4.6385   ZZ=   204.7312
   Eigenvalues:   189.8349   201.5379   211.2025
     36  C    Isotropic =   179.2536   Anisotropy =    39.3422
   XX=   169.3330   YX=     7.6700   ZX=    16.0605
   XY=   -10.7403   YY=   184.4213   ZY=    19.7153
   XZ=    18.3067   YZ=    15.1736   ZZ=   184.0065
   Eigenvalues:   153.4959   178.7832   205.4817
     37  C    Isotropic =   183.7268   Anisotropy =    43.4535
   XX=   177.4764   YX=    13.8781   ZX=   -21.8763
   XY=     6.4347   YY=   173.4996   ZY=     3.9010
   XZ=   -19.7963   YZ=     3.2331   ZZ=   200.2044
   Eigenvalues:   157.9192   180.5654   212.6958
     38  C    Isotropic =   211.0085   Anisotropy =    25.0567
   XX=   217.6313   YX=     8.9958   ZX=   -12.5774
   XY=    10.4648   YY=   211.4352   ZY=    -1.6412
   XZ=    -4.3643   YZ=    -3.4148   ZZ=   203.9590
   Eigenvalues:   199.4289   205.8836   227.7129
     39  C    Isotropic =   212.8164   Anisotropy =    19.2582
   XX=   216.0484   YX=     0.8924   ZX=    -5.7393
   XY=    -2.4674   YY=   204.3397   ZY=     4.7269
   XZ=    -8.8775   YZ=     7.2250   ZZ=   218.0609
   Eigenvalues:   201.8121   210.9818   225.6552
     40  C    Isotropic =   211.5985   Anisotropy =     9.9326
   XX=   212.3647   YX=     2.1903   ZX=     0.3910
   XY=     2.3983   YY=   215.4154   ZY=     4.5651
   XZ=     0.9720   YZ=     4.1104   ZZ=   207.0155
   Eigenvalues:   205.1670   211.4084   218.2202
     41  N    Isotropic =   235.3233   Anisotropy =    24.1029
   XX=   238.1607   YX=   -24.8886   ZX=   -13.1850
   XY=   -10.9402   YY=   226.9624   ZY=    -1.5219
   XZ=     4.7576   YZ=   -12.4215   ZZ=   240.8468
   Eigenvalues:   211.5452   243.0328   251.3919
     42  C    Isotropic =   193.9022   Anisotropy =    49.3435
   XX=   188.2307   YX=    11.8157   ZX=    16.5066
   XY=    17.0005   YY=   191.9713   ZY=    17.2622
   XZ=    18.2815   YZ=    15.0736   ZZ=   201.5045
   Eigenvalues:   174.8468   180.0619   226.7978
     43  C    Isotropic =   219.3699   Anisotropy =     9.2126
   XX=   209.7449   YX=     5.2306   ZX=    -4.0531
   XY=     1.9291   YY=   224.2812   ZY=     0.6251
   XZ=    -4.8918   YZ=     0.8897   ZZ=   224.0835
   Eigenvalues:   207.6624   224.9356   225.5116
     44  C    Isotropic =   215.0117   Anisotropy =    20.8811
   XX=   211.7644   YX=     4.6731   ZX=     0.8299
   XY=     7.3102   YY=   214.2962   ZY=    12.1714
   XZ=     0.5669   YZ=     9.6632   ZZ=   218.9744
   Eigenvalues:   203.1919   212.9107   228.9324
     45  C    Isotropic =   207.4215   Anisotropy =    35.1462
   XX=   194.8052   YX=    17.6845   ZX=   -14.7262
   XY=    12.5081   YY=   204.3123   ZY=    -2.3845
   XZ=   -14.6309   YZ=     2.8570   ZZ=   223.1470
   Eigenvalues:   180.2230   211.1892   230.8523
     46  C    Isotropic =   190.9220   Anisotropy =    51.9767
   XX=   164.3527   YX=    13.0345   ZX=    -1.5757
   XY=    11.4750   YY=   222.0414   ZY=    -9.8265
   XZ=   -10.1362   YZ=    -0.7412   ZZ=   186.3718
   Eigenvalues:   160.9715   186.2212   225.5731
     47  C    Isotropic =   211.7820   Anisotropy =    26.6361
   XX=   224.2139   YX=     2.3164   ZX=    10.8502
   XY=     1.3339   YY=   209.7436   ZY=     4.4603
   XZ=    12.0043   YZ=     4.3932   ZZ=   201.3885
   Eigenvalues:   195.8054   210.0012   229.5394
     48  C    Isotropic =   207.2759   Anisotropy =    18.3449
   XX=   217.3792   YX=    -4.0546   ZX=    -1.5429
   XY=    -4.3166   YY=   201.6560   ZY=     2.7258
   XZ=    -6.0944   YZ=     1.7092   ZZ=   202.7924
   Eigenvalues:   199.8492   202.4727   219.5059
     49  C    Isotropic =    98.3641   Anisotropy =    96.9145
   XX=    24.2613   YX=    48.5143   ZX=    53.6144
   XY=    73.3850   YY=   133.3708   ZY=   -25.2104
   XZ=    57.3418   YZ=   -17.4169   ZZ=   137.4601
   Eigenvalues:   -24.7082   156.8268   162.9738
     50  O    Isotropic =  -132.4244   Anisotropy =   878.0209
   XX=  -257.9560   YX=  -138.2086   ZX=   180.6726
   XY=  -127.0172   YY=  -505.4786   ZY=  -163.4078
   XZ=   186.9960   YZ=  -150.7298   ZZ=   366.1616
   Eigenvalues:  -569.4451  -280.7509   452.9229
     51  O    Isotropic =   285.7726   Anisotropy =   142.4305
   XX=   187.2620   YX=   -44.1825   ZX=    59.0864
   XY=  -170.4716   YY=   320.7453   ZY=    50.8492
   XZ=    12.9166   YZ=    -4.3116   ZZ=   349.3103
   Eigenvalues:   119.6503   356.9411   380.7262
     52  C    Isotropic =   197.4623   Anisotropy =    57.4877
   XX=   229.1462   YX=     4.9393   ZX=   -17.4899
   XY=     4.9822   YY=   178.3965   ZY=    -2.5545
   XZ=   -17.4992   YZ=    -3.6108   ZZ=   184.8443
   Eigenvalues:   176.9381   179.6614   235.7875
     53  C    Isotropic =   211.0176   Anisotropy =    41.4605
   XX=   203.1566   YX=     0.4156   ZX=    10.9973
   XY=     1.6239   YY=   194.7530   ZY=    -2.0533
   XZ=    11.2190   YZ=    -1.2025   ZZ=   235.1432
   Eigenvalues:   194.3201   200.0748   238.6580
     54  O    Isotropic =    76.4567   Anisotropy =   403.6974
   XX=   287.5202   YX=  -138.4021   ZX=   -13.5500
   XY=  -143.3630   YY=     3.4772   ZY=    -3.1133
   XZ=    15.5533   YZ=   -14.3955   ZZ=   -61.6274
   Eigenvalues:   -66.6052   -49.6131   345.5883
     55  H    Isotropic =    27.1796   Anisotropy =    15.3507
   XX=    31.4789   YX=     5.9719   ZX=     0.3370
   XY=     8.3973   YY=    28.3861   ZY=    -1.2651
   XZ=    -1.6826   YZ=    -1.6483   ZZ=    21.6738
   Eigenvalues:    21.1844    22.9410    37.4135
     56  H    Isotropic =    25.7113   Anisotropy =     6.0991
   XX=    25.9204   YX=     1.4266   ZX=     3.9258
   XY=     1.3895   YY=    25.5438   ZY=    -1.7838
   XZ=     3.9901   YZ=    -1.9342   ZZ=    25.6697
   Eigenvalues:    20.7217    26.6348    29.7773
     57  H    Isotropic =    26.4672   Anisotropy =     7.6638
   XX=    25.4259   YX=     3.2841   ZX=     2.7350
   XY=     2.7136   YY=    29.0438   ZY=    -3.9899
   XZ=     2.4939   YZ=    -3.4270   ZZ=    24.9321
   Eigenvalues:    20.0341    27.7913    31.5764
     58  H    Isotropic =    32.6856   Anisotropy =    12.8931
   XX=    40.2150   YX=     2.7633   ZX=     1.7096
   XY=     3.9663   YY=    30.6202   ZY=    -1.7696
   XZ=    -0.3401   YZ=    -1.0679   ZZ=    27.2217
   Eigenvalues:    26.4389    30.3370    41.2811
     59  H    Isotropic =    33.2352   Anisotropy =     8.5815
   XX=    35.7647   YX=    -0.4019   ZX=    -4.8764
   XY=     2.6591   YY=    33.6594   ZY=    -3.3724
   XZ=    -3.5542   YZ=    -1.4485   ZZ=    30.2816
   Eigenvalues:    27.5540    33.1954    38.9562
     60  H    Isotropic =    32.1685   Anisotropy =    12.4626
   XX=    28.3146   YX=    -2.8245   ZX=     2.6337
   XY=    -1.1674   YY=    29.6552   ZY=     4.0103
   XZ=     3.2787   YZ=     4.1237   ZZ=    38.5358
   Eigenvalues:    25.1251    30.9036    40.4769
     61  H    Isotropic =    32.3683   Anisotropy =    13.5554
   XX=    28.4521   YX=    -2.3087   ZX=    -0.8385
   XY=    -2.1214   YY=    37.0463   ZY=     6.0189
   XZ=    -0.8185   YZ=     6.1542   ZZ=    31.6065
   Eigenvalues:    27.3128    28.3868    41.4053
     62  H    Isotropic =    32.9846   Anisotropy =    18.8371
   XX=    45.3108   YX=    -0.9549   ZX=    -1.8312
   XY=     0.1178   YY=    26.5006   ZY=    -0.9598
   XZ=    -2.2407   YZ=    -0.2440   ZZ=    27.1423
   Eigenvalues:    26.0275    27.3835    45.5426
     63  H    Isotropic =    32.8265   Anisotropy =    11.5240
   XX=    37.9449   YX=     3.2192   ZX=     3.8672
   XY=     2.7920   YY=    29.0915   ZY=    -0.0053
   XZ=     4.1838   YZ=    -0.1179   ZZ=    31.4432
   Eigenvalues:    27.5691    30.4013    40.5092
     64  H    Isotropic =    31.8738   Anisotropy =    15.3784
   XX=    26.3615   YX=    -1.2518   ZX=    -2.9011
   XY=    -0.5197   YY=    27.8441   ZY=    -1.1817
   XZ=    -3.4079   YZ=    -1.2948   ZZ=    41.4157
   Eigenvalues:    25.2399    28.2553    42.1260
     65  H    Isotropic =    32.5335   Anisotropy =    16.1625
   XX=    30.2471   YX=    -4.9538   ZX=     4.3031
   XY=    -4.5556   YY=    33.4929   ZY=    -6.5264
   XZ=     3.9206   YZ=    -6.7181   ZZ=    33.8607
   Eigenvalues:    26.6482    27.6439    43.3086
     66  H    Isotropic =    31.9332   Anisotropy =    14.3780
   XX=    33.5041   YX=     5.8610   ZX=    -3.3866
   XY=     6.2322   YY=    32.0435   ZY=    -4.2048
   XZ=    -3.5501   YZ=    -4.4154   ZZ=    30.2520
   Eigenvalues:    26.1861    28.0949    41.5186
     67  H    Isotropic =    32.7600   Anisotropy =    15.0257
   XX=    42.4504   YX=    -1.6559   ZX=    -1.7840
   XY=    -1.4041   YY=    27.5094   ZY=    -2.2755
   XZ=    -1.7978   YZ=    -2.2344   ZZ=    28.3200
   Eigenvalues:    25.3084    30.1943    42.7771
     68  H    Isotropic =    32.3495   Anisotropy =    14.0016
   XX=    26.8960   YX=    -0.3835   ZX=     0.6433
   XY=    -0.4886   YY=    41.5251   ZY=     1.4387
   XZ=     0.5718   YZ=     1.3556   ZZ=    28.6274
   Eigenvalues:    26.6548    28.7098    41.6839
     69  H    Isotropic =    33.0958   Anisotropy =    11.1647
   XX=    30.7749   YX=    -3.5933   ZX=    -2.8065
   XY=    -5.5548   YY=    37.9930   ZY=     1.9992
   XZ=    -2.1671   YZ=    -0.4384   ZZ=    30.5195
   Eigenvalues:    27.3326    31.4158    40.5389
     70  H    Isotropic =    32.5234   Anisotropy =    13.0946
   XX=    40.8546   YX=     2.3310   ZX=    -0.4420
   XY=     2.4603   YY=    26.5510   ZY=     3.0896
   XZ=     0.2278   YZ=     1.8429   ZZ=    30.1644
   Eigenvalues:    24.9966    31.3204    41.2531
     71  H    Isotropic =    32.5884   Anisotropy =    11.3193
   XX=    31.2724   YX=     4.7425   ZX=     1.6415
   XY=     5.4304   YY=    33.9733   ZY=     4.5748
   XZ=     1.9751   YZ=     3.0432   ZZ=    32.5194
   Eigenvalues:    27.1515    30.4791    40.1346
     72  H    Isotropic =    32.0621   Anisotropy =    16.4006
   XX=    31.0761   YX=    -1.8951   ZX=    -6.8259
   XY=    -3.0933   YY=    26.9197   ZY=     3.3769
   XZ=    -6.6340   YZ=     1.7161   ZZ=    38.1906
   Eigenvalues:    25.6867    27.5039    42.9959
     73  H    Isotropic =    30.3908   Anisotropy =    11.1990
   XX=    33.0947   YX=     3.4036   ZX=    -3.4964
   XY=     3.0817   YY=    25.8416   ZY=    -3.6524
   XZ=    -2.8052   YZ=    -3.8343   ZZ=    32.2361
   Eigenvalues:    23.7673    29.5482    37.8568
     74  H    Isotropic =    32.0573   Anisotropy =    14.9483
   XX=    29.3254   YX=     3.9413   ZX=     2.8445
   XY=     3.3045   YY=    40.2588   ZY=     2.2904
   XZ=     2.7854   YZ=     2.6815   ZZ=    26.5878
   Eigenvalues:    24.8237    29.3254    42.0229
     75  H    Isotropic =    31.2768   Anisotropy =    12.4735
   XX=    30.3571   YX=     2.6317   ZX=     5.2298
   XY=     1.9097   YY=    30.0377   ZY=     4.9643
   XZ=     4.8454   YZ=     3.6345   ZZ=    33.4356
   Eigenvalues:    26.2966    27.9413    39.5925
     76  H    Isotropic =    30.5952   Anisotropy =     8.1424
   XX=    31.9736   YX=    -1.9449   ZX=    -1.1830
   XY=    -2.8585   YY=    29.1900   ZY=     3.9219
   XZ=    -1.7703   YZ=     4.5845   ZZ=    30.6220
   Eigenvalues:    25.4569    30.3051    36.0235
     77  H    Isotropic =    30.5073   Anisotropy =    12.1830
   XX=    36.4254   YX=     4.3268   ZX=    -0.3154
   XY=     4.5439   YY=    29.2766   ZY=    -0.7945
   XZ=    -0.9044   YZ=    -1.3925   ZZ=    25.8197
   Eigenvalues:    25.4357    27.4568    38.6292
     78  H    Isotropic =    30.5130   Anisotropy =    11.9596
   XX=    33.6107   YX=    -3.6800   ZX=     4.1299
   XY=    -3.7574   YY=    28.2231   ZY=    -4.0388
   XZ=     3.2207   YZ=    -3.7166   ZZ=    29.7052
   Eigenvalues:    24.9640    28.0889    38.4861
     79  H    Isotropic =    31.8808   Anisotropy =    10.7960
   XX=    30.3038   YX=    -1.3973   ZX=    -3.1201
   XY=    -0.1221   YY=    26.9209   ZY=    -0.0652
   XZ=    -1.6941   YZ=    -0.2513   ZZ=    38.4176
   Eigenvalues:    26.7158    29.8484    39.0781
     80  H    Isotropic =    30.6449   Anisotropy =    14.9489
   XX=    30.4463   YX=    -3.6819   ZX=     5.5437
   XY=    -3.3846   YY=    30.8935   ZY=    -5.5465
   XZ=     6.0137   YZ=    -5.5539   ZZ=    30.5949
   Eigenvalues:    24.1639    27.1600    40.6108
     81  H    Isotropic =    30.8238   Anisotropy =    11.0011
   XX=    31.2673   YX=     4.8190   ZX=     4.3579
   XY=     5.0712   YY=    29.2855   ZY=     0.3933
   XZ=     5.2555   YZ=     0.5471   ZZ=    31.9185
   Eigenvalues:    24.1041    30.2094    38.1578
     82  H    Isotropic =    30.1101   Anisotropy =    11.5181
   XX=    27.6565   YX=     2.9591   ZX=     0.0224
   XY=    -0.2477   YY=    31.8492   ZY=    -6.5061
   XZ=     1.8124   YZ=    -6.3289   ZZ=    30.8245
   Eigenvalues:    24.1686    28.3728    37.7888
     83  H    Isotropic =    30.1615   Anisotropy =    11.6401
   XX=    27.5449   YX=    -3.8331   ZX=     0.0628
   XY=    -0.6819   YY=    33.3915   ZY=     5.9241
   XZ=     2.0786   YZ=     6.0958   ZZ=    29.5481
   Eigenvalues:    23.8267    28.7362    37.9216
     84  H    Isotropic =    27.1169   Anisotropy =    14.1278
   XX=    31.9075   YX=    -5.5497   ZX=     0.4298
   XY=    -7.6398   YY=    27.0232   ZY=     0.4355
   XZ=    -1.4866   YZ=     0.5953   ZZ=    22.4198
   Eigenvalues:    22.2840    22.5312    36.5354
     85  H    Isotropic =    25.6839   Anisotropy =     5.9146
   XX=    25.3935   YX=    -1.3236   ZX=     3.6672
   XY=    -1.1817   YY=    25.5257   ZY=     2.0110
   XZ=     3.7691   YZ=     2.0374   ZZ=    26.1326
   Eigenvalues:    20.8866    26.5382    29.6270
     86  H    Isotropic =    26.4471   Anisotropy =     7.2965
   XX=    25.6003   YX=    -3.5867   ZX=     2.5049
   XY=    -2.9973   YY=    28.4126   ZY=     3.8934
   XZ=     2.1036   YZ=     3.2618   ZZ=    25.3283
   Eigenvalues:    20.2578    27.7720    31.3114
     87  H    Isotropic =    32.1897   Anisotropy =     9.3041
   XX=    37.3245   YX=    -2.1128   ZX=     2.5466
   XY=    -3.4197   YY=    30.0393   ZY=     1.4536
   XZ=     0.5555   YZ=     0.8437   ZZ=    29.2052
   Eigenvalues:    27.5164    30.6603    38.3924
     88  H    Isotropic =    33.2470   Anisotropy =     8.4701
   XX=    36.1360   YX=     0.8676   ZX=    -5.0895
   XY=    -2.4757   YY=    33.9793   ZY=     2.8787
   XZ=    -3.5332   YZ=     1.4863   ZZ=    29.6258
   Eigenvalues:    27.0948    33.7526    38.8938
     89  H    Isotropic =    32.1338   Anisotropy =    11.7314
   XX=    28.3415   YX=     2.9994   ZX=     1.0208
   XY=     0.9382   YY=    29.9262   ZY=    -4.2776
   XZ=     1.4540   YZ=    -4.2354   ZZ=    38.1338
   Eigenvalues:    25.9262    30.5205    39.9548
     90  H    Isotropic =    32.2872   Anisotropy =    13.4126
   XX=    31.4451   YX=     4.8526   ZX=    -2.8653
   XY=     4.2499   YY=    35.1156   ZY=    -4.9092
   XZ=    -2.7523   YZ=    -5.1973   ZZ=    30.3008
   Eigenvalues:    27.1091    28.5235    41.2289
     91  H    Isotropic =    33.1538   Anisotropy =    19.0780
   XX=    45.8560   YX=     0.3163   ZX=     0.2470
   XY=    -1.3331   YY=    27.4658   ZY=     1.0533
   XZ=    -0.6427   YZ=     0.2864   ZZ=    26.1396
   Eigenvalues:    25.8601    27.7288    45.8724
     92  H    Isotropic =    30.9565   Anisotropy =    14.8903
   XX=    26.3586   YX=     1.4652   ZX=    -3.2279
   XY=     0.5323   YY=    26.7979   ZY=     1.4217
   XZ=    -4.5605   YZ=     1.7756   ZZ=    39.7129
   Eigenvalues:    24.4550    27.5311    40.8833
     93  H    Isotropic =    32.2770   Anisotropy =    10.4429
   XX=    35.1179   YX=    -2.7967   ZX=     4.6373
   XY=    -2.1818   YY=    29.1287   ZY=    -0.0573
   XZ=     4.9752   YZ=    -0.1458   ZZ=    32.5845
   Eigenvalues:    27.3839    30.2083    39.2390
     94  H    Isotropic =    31.1079   Anisotropy =    14.0639
   XX=    32.8158   YX=    -5.9575   ZX=    -2.7211
   XY=    -6.5319   YY=    32.2643   ZY=     3.4706
   XZ=    -2.8660   YZ=     3.8403   ZZ=    28.2435
   Eigenvalues:    25.7410    27.0988    40.4838
     95  H    Isotropic =    32.3868   Anisotropy =    16.4151
   XX=    29.5523   YX=     5.0240   ZX=     3.8185
   XY=     4.2630   YY=    32.8172   ZY=     6.6768
   XZ=     3.5940   YZ=     7.2553   ZZ=    34.7908
   Eigenvalues:    25.9124    27.9179    43.3302
     96  H    Isotropic =    32.8163   Anisotropy =    15.5493
   XX=    42.9648   YX=     2.1983   ZX=    -0.6472
   XY=     1.4637   YY=    26.7575   ZY=     2.8918
   XZ=    -0.8650   YZ=     2.8666   ZZ=    28.7267
   Eigenvalues:    24.4973    30.7692    43.1825
     97  H    Isotropic =    32.1523   Anisotropy =    13.5406
   XX=    26.8510   YX=     1.2231   ZX=     0.0715
   XY=     0.8422   YY=    40.9530   ZY=    -1.4826
   XZ=    -0.0207   YZ=    -1.2799   ZZ=    28.6528
   Eigenvalues:    26.7667    28.5107    41.1793
     98  H    Isotropic =    32.7126   Anisotropy =    11.4442
   XX=    29.6305   YX=     2.3524   ZX=    -3.4742
   XY=     4.8290   YY=    38.8318   ZY=    -1.4826
   XZ=    -2.8993   YZ=     0.1668   ZZ=    29.6755
   Eigenvalues:    26.0856    31.7101    40.3421
     99  H    Isotropic =    31.3224   Anisotropy =    12.3583
   XX=    39.5094   YX=    -0.1258   ZX=     0.2716
   XY=     0.4318   YY=    25.9299   ZY=    -1.8584
   XZ=     1.2416   YZ=    -1.7840   ZZ=    28.5280
   Eigenvalues:    24.9758    29.4302    39.5613
    100  H    Isotropic =    31.9082   Anisotropy =    10.6314
   XX=    31.0708   YX=    -4.0412   ZX=     2.1161
   XY=    -4.7066   YY=    32.3752   ZY=    -4.7107
   XZ=     2.1412   YZ=    -3.1085   ZZ=    32.2787
   Eigenvalues:    27.0228    29.7060    38.9958
    101  H    Isotropic =    31.0488   Anisotropy =    15.5887
   XX=    29.6704   YX=     1.9105   ZX=    -6.2517
   XY=     3.9536   YY=    27.6839   ZY=    -4.2054
   XZ=    -6.7789   YZ=    -2.8664   ZZ=    35.7922
   Eigenvalues:    25.2152    26.4899    41.4413
    102  H    Isotropic =    29.8879   Anisotropy =    11.9692
   XX=    33.7715   YX=    -4.6876   ZX=    -1.6998
   XY=    -5.4025   YY=    27.7804   ZY=     3.3859
   XZ=    -1.3589   YZ=     4.7748   ZZ=    28.1119
   Eigenvalues:    23.0652    28.7312    37.8674
    103  H    Isotropic =    31.7986   Anisotropy =    13.5845
   XX=    28.8183   YX=    -0.8691   ZX=     2.0576
   XY=    -1.8814   YY=    37.9179   ZY=    -5.4019
   XZ=     2.1276   YZ=    -5.5901   ZZ=    28.6596
   Eigenvalues:    25.5231    29.0178    40.8550
    104  H    Isotropic =    31.4014   Anisotropy =    12.2866
   XX=    29.4505   YX=    -2.7748   ZX=     4.8388
   XY=    -3.3195   YY=    28.7703   ZY=    -2.9642
   XZ=     3.0710   YZ=    -3.7093   ZZ=    35.9834
   Eigenvalues:    26.0403    28.5714    39.5925
    105  H    Isotropic =    30.5963   Anisotropy =    11.6939
   XX=    36.3873   YX=     0.5284   ZX=     4.0925
   XY=     1.1799   YY=    26.3822   ZY=     1.8434
   XZ=     4.1010   YZ=     1.4979   ZZ=    29.0194
   Eigenvalues:    25.4288    27.9679    38.3923
    106  H    Isotropic =    30.6363   Anisotropy =    12.6164
   XX=    33.0868   YX=    -5.6691   ZX=    -2.5417
   XY=    -4.8469   YY=    31.7841   ZY=     2.8283
   XZ=    -2.5987   YZ=     3.3351   ZZ=    27.0381
   Eigenvalues:    25.5215    27.3402    39.0472
    107  H    Isotropic =    30.5689   Anisotropy =     7.6244
   XX=    32.1003   YX=    -0.0939   ZX=    -2.2537
   XY=     0.2421   YY=    28.0599   ZY=    -4.5381
   XZ=    -3.0352   YZ=    -3.4052   ZZ=    31.5465
   Eigenvalues:    25.1650    30.8898    35.6518
    108  H    Isotropic =    31.4762   Anisotropy =    11.8757
   XX=    32.0586   YX=    -4.5900   ZX=     5.7833
   XY=    -5.2508   YY=    29.4453   ZY=     0.0107
   XZ=     5.5888   YZ=     0.2160   ZZ=    32.9246
   Eigenvalues:    23.9365    31.0987    39.3933
    109  H    Isotropic =    30.7568   Anisotropy =    15.2522
   XX=    28.3981   YX=     3.3232   ZX=     5.4178
   XY=     2.9579   YY=    32.3259   ZY=     5.8392
   XZ=     5.2822   YZ=     6.3664   ZZ=    31.5463
   Eigenvalues:    24.0884    27.2571    40.9250
    110  H    Isotropic =    31.9411   Anisotropy =    10.8083
   XX=    30.3448   YX=     2.3115   ZX=    -3.2408
   XY=     1.0727   YY=    27.3173   ZY=    -0.6822
   XZ=    -2.4023   YZ=    -0.1628   ZZ=    38.1612
   Eigenvalues:    26.5021    30.1746    39.1466
 End of Minotr F.D. properties file   721 does not exist.
 End of Minotr F.D. properties file   722 does not exist.
 End of Minotr F.D. properties file   788 does not exist.
 Hyperfine terms turned off by default for NAtoms > 100.

 **********************************************************************

            Population analysis using the SCF Density.

 **********************************************************************

 Orbital symmetries:
       Occupied  (A) (A) (A) (A) (A) (A) (A) (A) (A) (A) (A) (A)
                 (A) (A) (A) (A) (A) (A) (A) (A) (A) (A) (A) (A)
                 (A) (A) (A) (A) (A) (A) (A) (A) (A) (A) (A) (A)
                 (A) (A) (A) (A) (A) (A) (A) (A) (A) (A) (A) (A)
                 (A) (A) (A) (A) (A) (A) (A) (A) (A) (A) (A) (A)
                 (A) (A) (A) (A) (A) (A) (A) (A) (A) (A) (A) (A)
                 (A) (A) (A) (A) (A) (A) (A) (A) (A) (A) (A) (A)
                 (A) (A) (A) (A) (A) (A) (A) (A) (A) (A) (A) (A)
                 (A) (A) (A) (A) (A) (A) (A) (A) (A) (A) (A) (A)
                 (A) (A) (A) (A) (A) (A) (A) (A) (A) (A) (A) (A)
                 (A) (A) (A) (A) (A) (A) (A) (A) (A) (A) (A) (A)
                 (A) (A) (A) (A) (A) (A) (A) (A) (A) (A) (A) (A)
                 (A) (A) (A) (A) (A) (A) (A) (A) (A) (A) (A) (A)
                 (A) (A) (A) (A) (A) (A) (A) (A) (A) (A) (A) (A)
                 (A) (A) (A) (A) (A) (A) (A) (A) (A) (A) (A) (A)
                 (A) (A) (A) (A) (A) (A) (A) (A) (A) (A) (A) (A)
                 (A) (A) (A) (A) (A)
       Virtual   (A) (A) (A) (A) (A) (A) (A) (A) (A) (A) (A) (A)
                 (A) (A) (A) (A) (A) (A) (A) (A) (A) (A) (A) (A)
                 (A) (A) (A) (A) (A) (A) (A) (A) (A) (A) (A) (A)
                 (A) (A) (A) (A) (A) (A) (A) (A) (A) (A) (A) (A)
                 (A) (A) (A) (A) (A) (A) (A) (A) (A) (A) (A) (A)
                 (A) (A) (A) (A) (A) (A) (A) (A) (A) (A) (A) (A)
                 (A) (A) (A) (A) (A) (A) (A) (A) (A) (A) (A) (A)
                 (A) (A) (A) (A) (A) (A) (A) (A) (A) (A) (A) (A)
                 (A) (A) (A) (A) (A) (A) (A) (A) (A) (A) (A) (A)
                 (A) (A) (A) (A) (A) (A) (A) (A) (A) (A) (A) (A)
                 (A) (A) (A) (A) (A) (A) (A) (A) (A)
 The electronic state is 1-A.
 Alpha  occ. eigenvalues --  -20.30237 -20.28690 -20.24319 -20.22721 -19.92400
 Alpha  occ. eigenvalues --  -15.48496 -15.33696 -15.33646 -15.30337 -11.16169
 Alpha  occ. eigenvalues --  -11.14952 -11.10319 -11.09980 -11.09597 -11.09550
 Alpha  occ. eigenvalues --  -11.09444 -11.09011 -11.08884 -11.08202 -11.08049
 Alpha  occ. eigenvalues --  -11.07149 -11.07084 -11.06816 -11.06685 -11.06564
 Alpha  occ. eigenvalues --  -11.06329 -11.06092 -11.05895 -11.05860 -11.05831
 Alpha  occ. eigenvalues --  -11.05484 -11.05470 -11.05060 -11.04879 -11.04813
 Alpha  occ. eigenvalues --  -11.04541 -11.04129 -11.04108 -11.04060 -11.03997
 Alpha  occ. eigenvalues --  -11.03984 -11.03931 -11.03899 -11.03428 -11.02471
 Alpha  occ. eigenvalues --  -11.02450 -11.02444 -11.02241 -11.02195 -11.02079
 Alpha  occ. eigenvalues --  -11.02018 -11.01910 -11.01685 -11.01669  -1.37535
 Alpha  occ. eigenvalues --   -1.35934  -1.29878  -1.27226  -1.25689  -1.21775
 Alpha  occ. eigenvalues --   -1.21099  -1.19493  -1.10819  -1.09640  -1.09074
 Alpha  occ. eigenvalues --   -1.07800  -1.06083  -1.05002  -1.03075  -1.00804
 Alpha  occ. eigenvalues --   -0.99180  -0.99040  -0.98495  -0.97688  -0.96858
 Alpha  occ. eigenvalues --   -0.96696  -0.95497  -0.94506  -0.94314  -0.92644
 Alpha  occ. eigenvalues --   -0.91872  -0.91288  -0.89766  -0.89477  -0.88130
 Alpha  occ. eigenvalues --   -0.86694  -0.85027  -0.82909  -0.81633  -0.81442
 Alpha  occ. eigenvalues --   -0.80685  -0.79688  -0.78573  -0.77779  -0.77226
 Alpha  occ. eigenvalues --   -0.77161  -0.74712  -0.74307  -0.73275  -0.72909
 Alpha  occ. eigenvalues --   -0.71818  -0.70491  -0.69488  -0.68583  -0.65500
 Alpha  occ. eigenvalues --   -0.65319  -0.64949  -0.64633  -0.63640  -0.63155
 Alpha  occ. eigenvalues --   -0.62777  -0.62333  -0.61824  -0.61619  -0.61262
 Alpha  occ. eigenvalues --   -0.60228  -0.59928  -0.59372  -0.58749  -0.58634
 Alpha  occ. eigenvalues --   -0.58362  -0.58132  -0.58073  -0.58000  -0.57515
 Alpha  occ. eigenvalues --   -0.57033  -0.56980  -0.56282  -0.55925  -0.55612
 Alpha  occ. eigenvalues --   -0.55276  -0.54882  -0.54808  -0.54553  -0.54509
 Alpha  occ. eigenvalues --   -0.54093  -0.53699  -0.53467  -0.53434  -0.52391
 Alpha  occ. eigenvalues --   -0.51922  -0.51607  -0.51156  -0.50923  -0.50601
 Alpha  occ. eigenvalues --   -0.50505  -0.49565  -0.49441  -0.49407  -0.48738
 Alpha  occ. eigenvalues --   -0.48581  -0.47979  -0.47811  -0.47531  -0.47426
 Alpha  occ. eigenvalues --   -0.46900  -0.46533  -0.46177  -0.45827  -0.45202
 Alpha  occ. eigenvalues --   -0.45118  -0.44906  -0.44578  -0.44057  -0.43979
 Alpha  occ. eigenvalues --   -0.43624  -0.43567  -0.43183  -0.42893  -0.42567
 Alpha  occ. eigenvalues --   -0.42330  -0.41700  -0.41145  -0.40880  -0.40773
 Alpha  occ. eigenvalues --   -0.40257  -0.40023  -0.39004  -0.38561  -0.38030
 Alpha  occ. eigenvalues --   -0.37634  -0.37542  -0.36131  -0.35801  -0.34102
 Alpha  occ. eigenvalues --   -0.33363  -0.32966  -0.31914  -0.31392  -0.30723
 Alpha  occ. eigenvalues --   -0.27595  -0.27514  -0.27122  -0.21373  -0.20556
 Alpha  occ. eigenvalues --   -0.16332  -0.15809
 Alpha virt. eigenvalues --    0.26501   0.27237   0.27422   0.27997   0.30909
 Alpha virt. eigenvalues --    0.32652   0.45374   0.48045   0.48326   0.48532
 Alpha virt. eigenvalues --    0.49001   0.49611   0.50607   0.51180   0.51860
 Alpha virt. eigenvalues --    0.53845   0.54563   0.55102   0.55371   0.55886
 Alpha virt. eigenvalues --    0.56610   0.57304   0.57781   0.58236   0.58408
 Alpha virt. eigenvalues --    0.58687   0.59529   0.59902   0.60606   0.60813
 Alpha virt. eigenvalues --    0.61130   0.61387   0.62029   0.62451   0.62963
 Alpha virt. eigenvalues --    0.63152   0.63530   0.64189   0.64381   0.64859
 Alpha virt. eigenvalues --    0.64930   0.65157   0.65275   0.65699   0.65809
 Alpha virt. eigenvalues --    0.66255   0.66369   0.66464   0.66736   0.67173
 Alpha virt. eigenvalues --    0.67329   0.67871   0.68021   0.68126   0.68528
 Alpha virt. eigenvalues --    0.68938   0.69022   0.69475   0.69790   0.69825
 Alpha virt. eigenvalues --    0.70077   0.70359   0.70417   0.70612   0.71001
 Alpha virt. eigenvalues --    0.71239   0.71312   0.71409   0.71684   0.72445
 Alpha virt. eigenvalues --    0.72660   0.72782   0.72879   0.73051   0.73284
 Alpha virt. eigenvalues --    0.73658   0.74111   0.74244   0.74497   0.74709
 Alpha virt. eigenvalues --    0.75023   0.75094   0.75706   0.75816   0.75939
 Alpha virt. eigenvalues --    0.76182   0.76281   0.76462   0.76746   0.77320
 Alpha virt. eigenvalues --    0.77738   0.78045   0.78260   0.78579   0.78895
 Alpha virt. eigenvalues --    0.79195   0.79668   0.79939   0.80087   0.80496
 Alpha virt. eigenvalues --    0.80906   0.80961   0.81077   0.81213   0.81856
 Alpha virt. eigenvalues --    0.82764   0.82976   0.83971   0.84193   0.84869
 Alpha virt. eigenvalues --    0.85530   0.85807   0.86130   0.86932   0.87653
 Alpha virt. eigenvalues --    0.87945   0.88820   0.90414   0.91214   0.94098
 Alpha virt. eigenvalues --    0.94563   0.95602   0.97542   1.01589   1.03149
 Alpha virt. eigenvalues --    1.09796   1.11181   1.15452   1.15928
          Condensed to atoms (all electrons):
 Mulliken charges:
               1
     1  C   -0.077930
     2  C   -0.000934
     3  C   -0.064232
     4  C   -0.090819
     5  C    0.090015
     6  C   -0.014828
     7  N   -0.282982
     8  C    0.015280
     9  C    0.130258
    10  C    0.040809
    11  C   -0.114593
    12  C   -0.108285
    13  C    0.041602
    14  N   -0.293966
    15  C   -0.011782
    16  C   -0.095674
    17  C   -0.100945
    18  C   -0.099319
    19  C   -0.013291
    20  C   -0.104349
    21  C   -0.063960
    22  C    0.318127
    23  O   -0.273554
    24  O   -0.256215
    25  C   -0.055454
    26  C   -0.078503
    27  C   -0.110664
    28  C   -0.000057
    29  C   -0.079453
    30  C   -0.062673
    31  C   -0.090812
    32  C    0.095563
    33  C   -0.013795
    34  N   -0.281116
    35  C    0.015318
    36  C    0.135155
    37  C    0.039623
    38  C   -0.116041
    39  C   -0.105823
    40  C    0.040084
    41  N   -0.081033
    42  C   -0.003178
    43  C   -0.097206
    44  C   -0.099671
    45  C   -0.098181
    46  C   -0.004719
    47  C   -0.098445
    48  C   -0.058555
    49  C    0.327446
    50  O   -0.275299
    51  O   -0.255785
    52  C   -0.054053
    53  C   -0.077258
    54  O   -0.461341
    55  H    0.059872
    56  H    0.055615
    57  H    0.059180
    58  H    0.040920
    59  H    0.050734
    60  H    0.049555
    61  H    0.048885
    62  H    0.045622
    63  H    0.038263
    64  H    0.061810
    65  H    0.049843
    66  H    0.056659
    67  H    0.046735
    68  H    0.051701
    69  H    0.058417
    70  H    0.065576
    71  H    0.040085
    72  H    0.062570
    73  H    0.080543
    74  H    0.048503
    75  H    0.063116
    76  H    0.074258
    77  H    0.071879
    78  H    0.076587
    79  H    0.053389
    80  H    0.072083
    81  H    0.076936
    82  H    0.060389
    83  H    0.061631
    84  H    0.055034
    85  H    0.056826
    86  H    0.060793
    87  H    0.053756
    88  H    0.053402
    89  H    0.049605
    90  H    0.053091
    91  H    0.045477
    92  H    0.084998
    93  H    0.055401
    94  H    0.081249
    95  H    0.058079
    96  H    0.046816
    97  H    0.058829
    98  H    0.068025
    99  H    0.096094
   100  H    0.056341
   101  H    0.089997
   102  H    0.102325
   103  H    0.044901
   104  H    0.062163
   105  H    0.067585
   106  H    0.074348
   107  H    0.078283
   108  H    0.072708
   109  H    0.075795
   110  H    0.054217
 Sum of Mulliken charges =  -0.00000
 Mulliken charges with hydrogens summed into heavy atoms:
               1
     1  C   -0.018059
     2  C   -0.000934
     3  C   -0.008617
     4  C   -0.031639
     5  C    0.090015
     6  C   -0.014828
     7  N   -0.282982
     8  C    0.015280
     9  C    0.130258
    10  C    0.081729
    11  C   -0.014305
    12  C   -0.013778
    13  C    0.041602
    14  N   -0.293966
    15  C    0.088291
    16  C    0.010829
    17  C   -0.002510
    18  C    0.024673
    19  C    0.089364
    20  C    0.024697
    21  C   -0.000844
    22  C    0.318127
    23  O   -0.273554
    24  O   -0.256215
    25  C    0.167270
    26  C    0.123904
    27  C    0.011356
    28  C   -0.000057
    29  C   -0.024419
    30  C   -0.005847
    31  C   -0.030018
    32  C    0.095563
    33  C   -0.013795
    34  N   -0.281116
    35  C    0.015318
    36  C    0.135155
    37  C    0.093379
    38  C   -0.013035
    39  C   -0.007255
    40  C    0.040084
    41  N   -0.081033
    42  C    0.137220
    43  C    0.042122
    44  C    0.005974
    45  C    0.065938
    46  C    0.141619
    47  C    0.048782
    48  C    0.003608
    49  C    0.327446
    50  O   -0.275299
    51  O   -0.255785
    52  C    0.166163
    53  C    0.125463
    54  O   -0.461341
 Electronic spatial extent (au):  <R**2>=          35868.7528
 Charge=             -0.0000 electrons
 Dipole moment (field-independent basis, Debye):
    X=             -2.8034    Y=             -0.5695    Z=             -1.0529  Tot=              3.0483
 Quadrupole moment (field-independent basis, Debye-Ang):
   XX=           -329.5455   YY=           -301.1531   ZZ=           -287.7638
   XY=             -3.9656   XZ=             16.4875   YZ=             -0.2581
 Traceless Quadrupole moment (field-independent basis, Debye-Ang):
   XX=            -23.3913   YY=              5.0011   ZZ=             18.3903
   XY=             -3.9656   XZ=             16.4875   YZ=             -0.2581
 Octapole moment (field-independent basis, Debye-Ang**2):
  XXX=           -130.9409  YYY=            -28.4479  ZZZ=            -14.6420  XYY=             -5.0994
  XXY=             -5.7469  XXZ=            -35.4132  XZZ=             27.2581  YZZ=             10.9052
  YYZ=            -10.1341  XYZ=            -44.5966
 Hexadecapole moment (field-independent basis, Debye-Ang**3):
 XXXX=         -30550.1628 YYYY=          -7574.3439 ZZZZ=          -5599.9499 XXXY=           -573.7852
 XXXZ=            638.2070 YYYX=              1.8411 YYYZ=             36.0494 ZZZX=             51.1536
 ZZZY=             16.4071 XXYY=          -6576.5344 XXZZ=          -6116.9538 YYZZ=          -2177.0264
 XXYZ=              4.8226 YYXZ=             31.8186 ZZXY=              5.6104
 N-N= 8.230566438508D+03 E-N=-2.183705136098D+04  KE= 2.279058358353D+03
 ******************************Gaussian NBO Version 3.1******************************
             N A T U R A L   A T O M I C   O R B I T A L   A N D
          N A T U R A L   B O N D   O R B I T A L   A N A L Y S I S
 ******************************Gaussian NBO Version 3.1******************************
       /RESON  / : Allow strongly delocalized NBO set
       /NLMO   / : Form Natural Localized Molecular Orbitals
       /NMR /    : Analyze NMR Sheilding Tensor 

 Analyzing the SCF density

 Job title: Pleiokomenine_C_2                                               

 Storage needed:    355564 in NPA,    438187 in NBO,   2133784 in NLMO ( 104796000 available)
 GSVD:  LWork=     -108884 too small for GESVD, short by      536270 words or      536270 for optimal perf.


 NATURAL POPULATIONS:  Natural atomic orbital occupancies 
                                                          
   NAO  Atom  No  lang   Type(AO)    Occupancy      Energy
 ----------------------------------------------------------
     1    C    1  S      Cor( 1S)     1.99992     -10.94721
     2    C    1  S      Val( 2S)     1.07832      -0.17905
     3    C    1  px     Val( 2p)     1.00077       0.09094
     4    C    1  py     Val( 2p)     0.99178       0.10376
     5    C    1  pz     Val( 2p)     0.99016       0.11726
 
     6    C    2  S      Cor( 1S)     1.99990     -10.95770
     7    C    2  S      Val( 2S)     1.08027      -0.18649
     8    C    2  px     Val( 2p)     0.96612       0.10961
     9    C    2  py     Val( 2p)     0.96686       0.12348
    10    C    2  pz     Val( 2p)     0.97287       0.12917
 
    11    C    3  S      Cor( 1S)     1.99994     -10.94839
    12    C    3  S      Val( 2S)     1.08438      -0.18422
    13    C    3  px     Val( 2p)     0.98433       0.10268
    14    C    3  py     Val( 2p)     0.98396       0.11029
    15    C    3  pz     Val( 2p)     0.98395       0.11530
 
    16    C    4  S      Cor( 1S)     1.99993     -10.94204
    17    C    4  S      Val( 2S)     1.07210      -0.17460
    18    C    4  px     Val( 2p)     1.01130       0.09130
    19    C    4  py     Val( 2p)     0.99942       0.10859
    20    C    4  pz     Val( 2p)     1.00538       0.10908
 
    21    C    5  S      Cor( 1S)     1.99985     -10.98924
    22    C    5  S      Val( 2S)     1.06088      -0.18697
    23    C    5  px     Val( 2p)     0.90444       0.10785
    24    C    5  py     Val( 2p)     0.93977       0.12885
    25    C    5  pz     Val( 2p)     0.98136       0.10301
 
    26    C    6  S      Cor( 1S)     1.99990     -10.94903
    27    C    6  S      Val( 2S)     1.08485      -0.19173
    28    C    6  px     Val( 2p)     0.98525       0.11326
    29    C    6  py     Val( 2p)     0.97974       0.10834
    30    C    6  pz     Val( 2p)     0.97443       0.11368
 
    31    N    7  S      Cor( 1S)     1.99998     -15.26965
    32    N    7  S      Val( 2S)     1.40534      -0.59448
    33    N    7  px     Val( 2p)     1.52701      -0.16042
    34    N    7  py     Val( 2p)     1.14017      -0.01757
    35    N    7  pz     Val( 2p)     1.19942      -0.02917
 
    36    C    8  S      Cor( 1S)     1.99996     -11.00677
    37    C    8  S      Val( 2S)     1.10695      -0.23170
    38    C    8  px     Val( 2p)     0.98100       0.06955
    39    C    8  py     Val( 2p)     0.94919       0.10900
    40    C    8  pz     Val( 2p)     0.94738       0.11293
 
    41    C    9  S      Cor( 1S)     1.99996     -11.05132
    42    C    9  S      Val( 2S)     1.11278      -0.25739
    43    C    9  px     Val( 2p)     0.92489       0.08235
    44    C    9  py     Val( 2p)     0.87267       0.12283
    45    C    9  pz     Val( 2p)     0.91549       0.08916
 
    46    C   10  S      Cor( 1S)     1.99994     -11.01528
    47    C   10  S      Val( 2S)     1.09222      -0.21490
    48    C   10  px     Val( 2p)     0.97001       0.10263
    49    C   10  py     Val( 2p)     0.97580       0.08172
    50    C   10  pz     Val( 2p)     0.88924       0.10028
 
    51    C   11  S      Cor( 1S)     1.99994     -10.98183
    52    C   11  S      Val( 2S)     1.10428      -0.21682
    53    C   11  px     Val( 2p)     0.99124       0.08218
    54    C   11  py     Val( 2p)     0.99711       0.08057
    55    C   11  pz     Val( 2p)     0.99169       0.08418
 
    56    C   12  S      Cor( 1S)     1.99996     -10.97885
    57    C   12  S      Val( 2S)     1.08798      -0.19799
    58    C   12  px     Val( 2p)     1.00130       0.08832
    59    C   12  py     Val( 2p)     0.99921       0.08751
    60    C   12  pz     Val( 2p)     0.99009       0.08305
 
    61    C   13  S      Cor( 1S)     1.99998     -11.00504
    62    C   13  S      Val( 2S)     1.10015      -0.22207
    63    C   13  px     Val( 2p)     0.94512       0.10913
    64    C   13  py     Val( 2p)     0.95080       0.10545
    65    C   13  pz     Val( 2p)     0.94060       0.11383
 
    66    N   14  S      Cor( 1S)     1.99999     -15.23389
    67    N   14  S      Val( 2S)     1.41310      -0.57715
    68    N   14  px     Val( 2p)     1.56358      -0.15740
    69    N   14  py     Val( 2p)     1.24592      -0.03013
    70    N   14  pz     Val( 2p)     1.06147       0.03759
 
    71    C   15  S      Cor( 1S)     1.99994     -11.01080
    72    C   15  S      Val( 2S)     1.06942      -0.19085
    73    C   15  px     Val( 2p)     0.96734       0.09980
    74    C   15  py     Val( 2p)     0.95825       0.08250
    75    C   15  pz     Val( 2p)     0.96206       0.09319
 
    76    C   16  S      Cor( 1S)     1.99996     -10.97929
    77    C   16  S      Val( 2S)     1.08435      -0.19272
    78    C   16  px     Val( 2p)     1.02127       0.08939
    79    C   16  py     Val( 2p)     0.97743       0.09576
    80    C   16  pz     Val( 2p)     0.97583       0.09735
 
    81    C   17  S      Cor( 1S)     1.99995     -10.98088
    82    C   17  S      Val( 2S)     1.09038      -0.19896
    83    C   17  px     Val( 2p)     1.00319       0.08910
    84    C   17  py     Val( 2p)     0.99983       0.08980
    85    C   17  pz     Val( 2p)     0.97171       0.09439
 
    86    C   18  S      Cor( 1S)     1.99994     -10.97731
    87    C   18  S      Val( 2S)     1.09336      -0.19802
    88    C   18  px     Val( 2p)     1.00207       0.09415
    89    C   18  py     Val( 2p)     1.01330       0.09333
    90    C   18  pz     Val( 2p)     0.95766       0.08596
 
    91    C   19  S      Cor( 1S)     1.99995     -11.00651
    92    C   19  S      Val( 2S)     1.07128      -0.18999
    93    C   19  px     Val( 2p)     0.99699       0.08260
    94    C   19  py     Val( 2p)     0.89341       0.11333
    95    C   19  pz     Val( 2p)     0.99780       0.08077
 
    96    C   20  S      Cor( 1S)     1.99992     -10.98129
    97    C   20  S      Val( 2S)     1.10214      -0.20984
    98    C   20  px     Val( 2p)     0.97220       0.08909
    99    C   20  py     Val( 2p)     0.98040       0.09290
   100    C   20  pz     Val( 2p)     1.01200       0.08900
 
   101    C   21  S      Cor( 1S)     1.99994     -11.00888
   102    C   21  S      Val( 2S)     1.11387      -0.24084
   103    C   21  px     Val( 2p)     0.96579       0.08357
   104    C   21  py     Val( 2p)     0.99178       0.06909
   105    C   21  pz     Val( 2p)     1.00864       0.06746
 
   106    C   22  S      Cor( 1S)     1.99991     -11.10886
   107    C   22  S      Val( 2S)     1.05561      -0.25811
   108    C   22  px     Val( 2p)     0.89722       0.08616
   109    C   22  py     Val( 2p)     0.84741       0.02758
   110    C   22  pz     Val( 2p)     0.79974       0.16993
 
   111    O   23  S      Cor( 1S)     1.99999     -20.09547
   112    O   23  S      Val( 2S)     1.80832      -1.05437
   113    O   23  px     Val( 2p)     1.73716      -0.27491
   114    O   23  py     Val( 2p)     1.39578      -0.16936
   115    O   23  pz     Val( 2p)     1.36621      -0.12357
 
   116    O   24  S      Cor( 1S)     1.99999     -20.21178
   117    O   24  S      Val( 2S)     1.72952      -1.02444
   118    O   24  px     Val( 2p)     1.27653      -0.11973
   119    O   24  py     Val( 2p)     1.68567      -0.29723
   120    O   24  pz     Val( 2p)     1.57617      -0.25821
 
   121    C   25  S      Cor( 1S)     1.99984     -11.04351
   122    C   25  S      Val( 2S)     1.07680      -0.22499
   123    C   25  px     Val( 2p)     0.84109       0.08195
   124    C   25  py     Val( 2p)     1.02023       0.04414
   125    C   25  pz     Val( 2p)     1.02701       0.04355
 
   126    C   26  S      Cor( 1S)     1.99992     -11.01626
   127    C   26  S      Val( 2S)     1.06498      -0.19636
   128    C   26  px     Val( 2p)     1.02337       0.06035
   129    C   26  py     Val( 2p)     1.04959       0.04874
   130    C   26  pz     Val( 2p)     0.87834       0.10302
 
   131    C   27  S      Cor( 1S)     1.99995     -10.98522
   132    C   27  S      Val( 2S)     1.08439      -0.19146
   133    C   27  px     Val( 2p)     0.97526       0.09995
   134    C   27  py     Val( 2p)     1.00093       0.08490
   135    C   27  pz     Val( 2p)     1.02703       0.08127
 
   136    C   28  S      Cor( 1S)     1.99991     -10.95795
   137    C   28  S      Val( 2S)     1.07958      -0.18664
   138    C   28  px     Val( 2p)     0.96307       0.11418
   139    C   28  py     Val( 2p)     0.97409       0.10941
   140    C   28  pz     Val( 2p)     0.96908       0.13813
 
   141    C   29  S      Cor( 1S)     1.99992     -10.94976
   142    C   29  S      Val( 2S)     1.07699      -0.18116
   143    C   29  px     Val( 2p)     1.00125       0.09094
   144    C   29  py     Val( 2p)     0.99754       0.08726
   145    C   29  pz     Val( 2p)     0.98769       0.12375
 
   146    C   30  S      Cor( 1S)     1.99994     -10.94895
   147    C   30  S      Val( 2S)     1.08457      -0.18434
   148    C   30  px     Val( 2p)     0.98418       0.10358
   149    C   30  py     Val( 2p)     0.98747       0.09769
   150    C   30  pz     Val( 2p)     0.97820       0.12751
 
   151    C   31  S      Cor( 1S)     1.99993     -10.94194
   152    C   31  S      Val( 2S)     1.07150      -0.17387
   153    C   31  px     Val( 2p)     1.00952       0.09226
   154    C   31  py     Val( 2p)     1.00767       0.09578
   155    C   31  pz     Val( 2p)     1.00071       0.12051
 
   156    C   32  S      Cor( 1S)     1.99985     -10.99179
   157    C   32  S      Val( 2S)     1.06032      -0.18779
   158    C   32  px     Val( 2p)     0.89922       0.11061
   159    C   32  py     Val( 2p)     0.94841       0.11588
   160    C   32  pz     Val( 2p)     0.97233       0.11265
 
   161    C   33  S      Cor( 1S)     1.99990     -10.95313
   162    C   33  S      Val( 2S)     1.08592      -0.19722
   163    C   33  px     Val( 2p)     0.98181       0.11405
   164    C   33  py     Val( 2p)     0.98253       0.09163
   165    C   33  pz     Val( 2p)     0.97198       0.11949
 
   166    N   34  S      Cor( 1S)     1.99998     -15.26857
   167    N   34  S      Val( 2S)     1.39383      -0.58805
   168    N   34  px     Val( 2p)     1.54161      -0.16574
   169    N   34  py     Val( 2p)     1.16805      -0.02801
   170    N   34  pz     Val( 2p)     1.16787      -0.01361
 
   171    C   35  S      Cor( 1S)     1.99996     -11.01543
   172    C   35  S      Val( 2S)     1.10376      -0.23891
   173    C   35  px     Val( 2p)     0.98969       0.05651
   174    C   35  py     Val( 2p)     0.94381       0.10727
   175    C   35  pz     Val( 2p)     0.95161       0.10237
 
   176    C   36  S      Cor( 1S)     1.99996     -11.05231
   177    C   36  S      Val( 2S)     1.11508      -0.25906
   178    C   36  px     Val( 2p)     0.93379       0.07825
   179    C   36  py     Val( 2p)     0.86786       0.12742
   180    C   36  pz     Val( 2p)     0.90411       0.09244
 
   181    C   37  S      Cor( 1S)     1.99991     -11.03628
   182    C   37  S      Val( 2S)     1.10937      -0.25331
   183    C   37  px     Val( 2p)     0.94583       0.07455
   184    C   37  py     Val( 2p)     0.99162       0.05968
   185    C   37  pz     Val( 2p)     0.88445       0.07541
 
   186    C   38  S      Cor( 1S)     1.99993     -10.98191
   187    C   38  S      Val( 2S)     1.10917      -0.22103
   188    C   38  px     Val( 2p)     0.98664       0.08320
   189    C   38  py     Val( 2p)     0.99882       0.07842
   190    C   38  pz     Val( 2p)     0.98984       0.08532
 
   191    C   39  S      Cor( 1S)     1.99996     -10.98365
   192    C   39  S      Val( 2S)     1.09062      -0.20446
   193    C   39  px     Val( 2p)     0.99131       0.08677
   194    C   39  py     Val( 2p)     1.00554       0.08105
   195    C   39  pz     Val( 2p)     0.98748       0.07950
 
   196    C   40  S      Cor( 1S)     1.99998     -11.01581
   197    C   40  S      Val( 2S)     1.09915      -0.23038
   198    C   40  px     Val( 2p)     0.96471       0.09309
   199    C   40  py     Val( 2p)     0.93532       0.10180
   200    C   40  pz     Val( 2p)     0.94184       0.10468
 
   201    N   41  S      Cor( 1S)     1.99999     -15.42088
   202    N   41  S      Val( 2S)     1.39270      -0.66066
   203    N   41  px     Val( 2p)     1.24673      -0.12557
   204    N   41  py     Val( 2p)     1.16740      -0.10763
   205    N   41  pz     Val( 2p)     1.15977      -0.11493
 
   206    C   42  S      Cor( 1S)     1.99992     -11.04160
   207    C   42  S      Val( 2S)     1.09123      -0.23853
   208    C   42  px     Val( 2p)     0.96056       0.06930
   209    C   42  py     Val( 2p)     0.95745       0.05584
   210    C   42  pz     Val( 2p)     0.94069       0.06114
 
   211    C   43  S      Cor( 1S)     1.99995     -10.99498
   212    C   43  S      Val( 2S)     1.08724      -0.20892
   213    C   43  px     Val( 2p)     1.03693       0.07109
   214    C   43  py     Val( 2p)     0.96242       0.08587
   215    C   43  pz     Val( 2p)     0.97690       0.08504
 
   216    C   44  S      Cor( 1S)     1.99994     -10.99073
   217    C   44  S      Val( 2S)     1.09157      -0.20882
   218    C   44  px     Val( 2p)     1.00158       0.08073
   219    C   44  py     Val( 2p)     1.00551       0.07815
   220    C   44  pz     Val( 2p)     0.96436       0.08962
 
   221    C   45  S      Cor( 1S)     1.99993     -10.98808
   222    C   45  S      Val( 2S)     1.09834      -0.21040
   223    C   45  px     Val( 2p)     1.02651       0.07781
   224    C   45  py     Val( 2p)     1.01091       0.08567
   225    C   45  pz     Val( 2p)     0.93173       0.08650
 
   226    C   46  S      Cor( 1S)     1.99993     -11.03515
   227    C   46  S      Val( 2S)     1.09455      -0.23654
   228    C   46  px     Val( 2p)     1.01786       0.05715
   229    C   46  py     Val( 2p)     0.82714       0.08668
   230    C   46  pz     Val( 2p)     1.01447       0.04868
 
   231    C   47  S      Cor( 1S)     1.99991     -10.97665
   232    C   47  S      Val( 2S)     1.10312      -0.20419
   233    C   47  px     Val( 2p)     0.97701       0.09722
   234    C   47  py     Val( 2p)     0.96783       0.10313
   235    C   47  pz     Val( 2p)     1.01257       0.09401
 
   236    C   48  S      Cor( 1S)     1.99994     -11.00529
[...]
  104      26.3288        0.8877      25.4411         0.5772      25.7516
  105       0.2139       -1.1527       1.3666        -0.4446       0.6584
 Sum       30.7440       -0.2522      30.9962         0.2501      30.4939

 Contributions to Isotropic shielding for atom   94 (    31.1079 ppm):
                         Standard Origin              Atomic Origin
 NLMO      Total    Paramagnetic  Diamagnetic   Paramagnetic  Diamagnetic
   98      -0.1419        0.6123      -0.7542        -1.0534       0.9115
   99      -0.3594        0.0401      -0.3995        -1.2266       0.8672
  102       0.7842        2.2499      -1.4657        -0.1162       0.9004
  105       1.0894        1.0546       0.0348        -0.0819       1.1713
  106      25.8087       -0.3217      26.1304         0.5855      25.2232
  107       1.9348        3.3438      -1.4090         0.1001       1.8347
  109       0.0992        1.1189      -1.0197        -0.9088       1.0080
  116      -0.2084       -1.3174       1.1090        -0.5300       0.3216
 Sum       29.0067        6.7806      22.2261        -3.2312      32.2380

 Contributions to Isotropic shielding for atom   95 (    32.3868 ppm):
                         Standard Origin              Atomic Origin
 NLMO      Total    Paramagnetic  Diamagnetic   Paramagnetic  Diamagnetic
  102       1.1183        1.2109      -0.0926         0.1517       0.9666
  105       1.6347       -0.2711       1.9058         0.5278       1.1068
  106       1.8198        3.6817      -1.8619        -0.0250       1.8448
  107      26.2633        0.0336      26.2297         0.4490      25.8142
  108       0.0209        0.7117      -0.6907        -1.1030       1.1240
 Sum       30.8570        5.3667      25.4903         0.0005      30.8564

 Contributions to Isotropic shielding for atom   96 (    32.8163 ppm):
                         Standard Origin              Atomic Origin
 NLMO      Total    Paramagnetic  Diamagnetic   Paramagnetic  Diamagnetic
   97       2.0430       -1.6430       3.6860         1.0911       0.9519
  102       0.2917       -1.3120       1.6037        -0.2394       0.5310
  105       1.1355        0.1280       1.0075        -0.0018       1.1373
  107      -0.0117       -1.7173       1.7056        -1.0341       1.0224
  108      26.3353        0.5157      25.8196         0.2551      26.0802
  109       1.8688        0.7972       1.0717         0.0248       1.8440
 Sum       31.6626       -3.2315      34.8940         0.0958      31.5668

 Contributions to Isotropic shielding for atom   97 (    32.1523 ppm):
                         Standard Origin              Atomic Origin
 NLMO      Total    Paramagnetic  Diamagnetic   Paramagnetic  Diamagnetic
   97       1.1378        0.6929       0.4449         0.1706       0.9672
   98      -0.1857        0.7674      -0.9530        -1.1744       0.9887
  105       0.4868        2.9133      -2.4265        -0.5914       1.0782
  106       0.1698       -0.8454       1.0152        -0.9423       1.1121
  108       2.3398        0.1769       2.1629         0.6139       1.7259
  109      26.2826       -0.0295      26.3121         0.5441      25.7385
 Sum       30.2311        3.6755      26.5556        -1.3796      31.6107

 Contributions to Isotropic shielding for atom   98 (    32.7126 ppm):
                         Standard Origin              Atomic Origin
 NLMO      Total    Paramagnetic  Diamagnetic   Paramagnetic  Diamagnetic
   71      -1.1356        0.3089      -1.4445        -2.1442       1.0086
   80      -0.0630        1.2700      -1.3330        -1.1613       1.0982
   85       1.8941       -1.4549       3.3490         1.2633       0.6308
   89      -0.0882        0.1070      -0.1952        -1.0324       0.9442
  110       0.6283        1.2078      -0.5795        -0.1776       0.8059
  111      26.1004        0.1026      25.9978         0.6405      25.4600
  112       1.7490        3.1659      -1.4169        -0.1775       1.9265
  121       0.0424       -1.2182       1.2606        -0.7591       0.8015
 Sum       29.1275        3.4892      25.6384        -3.5483      32.6759

 Contributions to Isotropic shielding for atom   99 (    31.3225 ppm):
                         Standard Origin              Atomic Origin
 NLMO      Total    Paramagnetic  Diamagnetic   Paramagnetic  Diamagnetic
   83      -0.3477        1.1350      -1.4827        -0.7466       0.3989
   85       1.1169       -0.2020       1.3189         0.3168       0.8001
   87      -0.2589        0.1848      -0.4437        -1.0957       0.8367
   89      -0.1643       -0.1397      -0.0246        -1.0483       0.8840
  110       0.5298        2.0701      -1.5404        -0.1936       0.7234
  111       1.5996        2.8941      -1.2945        -0.3206       1.9202
  112      25.5598       -0.1730      25.7328         0.6806      24.8791
  114       0.0746        0.2445      -0.1699        -0.9279       1.0026
  118       0.5663       -0.9304       1.4966        -0.2644       0.8306
  120       1.2439       -0.3992       1.6430         0.3973       0.8466
  121      -0.3003       -2.9744       2.6741        -1.3408       1.0405
  123       0.3084       -0.7667       1.0751        -0.4475       0.7560
  126       0.0335       -1.5630       1.5965        -0.4201       0.4536
  191      -0.5324        1.2299      -1.7623         0.4379      -0.9703
  195       0.0261        0.1072      -0.0811         1.0476      -1.0215
 Sum       29.4551        0.7172      28.7379        -3.9254      33.3805

 Contributions to Isotropic shielding for atom  100 (    31.9082 ppm):
                         Standard Origin              Atomic Origin
 NLMO      Total    Paramagnetic  Diamagnetic   Paramagnetic  Diamagnetic
   71      -0.1756       -0.0959      -0.0797        -1.3068       1.1313
   84      -0.2423        0.4542      -0.6964        -1.0611       0.8189
  100       1.7989       -1.7052       3.5041         1.3453       0.4536
  110       1.3154       -1.4896       2.8050         0.4773       0.8381
  113      26.3351        0.9122      25.4229         0.6363      25.6988
  114       1.1444        1.5964      -0.4520        -0.6969       1.8413
 Sum       30.1760       -0.3279      30.5039        -0.6060      30.7820

 Contributions to Isotropic shielding for atom  101 (    31.0488 ppm):
                         Standard Origin              Atomic Origin
 NLMO      Total    Paramagnetic  Diamagnetic   Paramagnetic  Diamagnetic
  100      -0.3953        1.1926      -1.5879        -1.1647       0.7694
  101      -0.0653        0.6018      -0.6671        -1.0837       1.0185
  110       0.4372        1.7314      -1.2942        -0.5469       0.9842
  112       0.0963        0.3550      -0.2587        -0.9379       1.0342
  113       1.6741        0.2353       1.4387        -0.0128       1.6868
  114      25.9755        0.3637      25.6118         1.1153      24.8602
  195       0.3189       -0.9920       1.3109         1.1418      -0.8229
 Sum       28.0414        3.4879      24.5536        -1.4889      29.5304

 Contributions to Isotropic shielding for atom  102 (    29.8879 ppm):
                         Standard Origin              Atomic Origin
 NLMO      Total    Paramagnetic  Diamagnetic   Paramagnetic  Diamagnetic
   87       0.3371       -0.7494       1.0865         0.2313       0.1057
   89      -0.3103        0.0377      -0.3480        -1.2081       0.8978
   97      -0.2722        1.3451      -1.6173        -1.0987       0.8265
   98       1.4701       -0.2613       1.7314         0.5658       0.9043
  106      -0.2082       -1.3089       1.1007        -0.7720       0.5638
  115       0.2286        2.4713      -2.2427        -0.6456       0.8741
  116      25.3448       -0.1732      25.5179         0.7125      24.6323
  117       1.6280        2.8255      -1.1975        -0.2914       1.9194
  118      -0.4357        0.2200      -0.6557        -1.3857       0.9500
  122       1.5150       -2.1283       3.6433         0.3061       1.2089
  125       0.1323       -1.1272       1.2595        -0.5472       0.6795
  126       0.1797       -1.1895       1.3692        -0.4649       0.6446
  193      -1.2720        1.0992      -2.3712         0.1367      -1.4088
  194      -0.3660       -1.3246       0.9586        -0.8173       0.4513
  195      -0.3243        0.7796      -1.1039         0.6429      -0.9671
 Sum       27.6467        0.5160      27.1307        -4.6355      32.2822

 Contributions to Isotropic shielding for atom  103 (    31.7986 ppm):
                         Standard Origin              Atomic Origin
 NLMO      Total    Paramagnetic  Diamagnetic   Paramagnetic  Diamagnetic
   86      -0.1008        0.3429      -0.4437        -1.0134       0.9126
   87       0.4311       -0.9138       1.3449         0.1491       0.2820
   94      -0.2319        1.0116      -1.2435        -1.1946       0.9627
   97      -0.1087        0.9755      -1.0842        -0.7182       0.6095
   98       1.8918       -1.0644       2.9562         0.9138       0.9780
  115       0.7510        1.6605      -0.9095        -0.3563       1.1073
  116       1.7069        2.8165      -1.1096        -0.3360       2.0430
  117      26.6207       -0.1128      26.7335         0.5309      26.0898
  118      -0.2955        0.8408      -1.1362        -0.3908       0.0953
  119      -0.1376       -0.9570       0.8193        -1.2772       1.1396
  122       0.8437       -1.2701       2.1138        -0.2734       1.1171
  193      -0.6989        0.4410      -1.1399         0.1563      -0.8552
 Sum       30.6719        3.7707      26.9012        -3.8097      34.4816

 Contributions to Isotropic shielding for atom  104 (    31.4014 ppm):
                         Standard Origin              Atomic Origin
 NLMO      Total    Paramagnetic  Diamagnetic   Paramagnetic  Diamagnetic
   81      -0.5039        1.1439      -1.6479        -1.1971       0.6932
   86      -0.2329        1.0830      -1.3160        -1.3590       1.1261
   87       1.8593       -0.4749       2.3342         0.9401       0.9191
   98       0.2600       -0.7671       1.0271         0.1711       0.0889
  115       1.5639        0.9790       0.5849         0.2962       1.2677
  117      -0.2458        0.0918      -0.3376        -1.3947       1.1489
  118       0.4374        4.6083      -4.1710        -0.6783       1.1157
  119      25.9807       -0.4939      26.4746         0.2857      25.6951
  121       0.5744       -0.7608       1.3352        -0.2516       0.8260
  122       0.7093       -1.5424       2.2517        -0.6316       1.3408
  124       0.1563       -0.9486       1.1049        -0.5002       0.6565
  126       0.1467       -0.8537       1.0004        -0.3082       0.4549
  127      -0.2660       -2.2487       1.9827        -0.7537       0.4876
 Sum       30.4393       -0.1839      30.6232        -5.3814      35.8206

 Contributions to Isotropic shielding for atom  105 (    30.5963 ppm):
                         Standard Origin              Atomic Origin
 NLMO      Total    Paramagnetic  Diamagnetic   Paramagnetic  Diamagnetic
  120      -1.3537        0.9040      -2.2577        -2.2428       0.8892
  121      -0.5457        2.2338      -2.7795        -2.1048       1.5592
  122      -2.0269        1.4555      -3.4824        -2.8016       0.7747
  123       1.5422       -0.5667       2.1089         0.0390       1.5032
  124      26.6119        0.6925      25.9194         1.2492      25.3627
  125       1.1863        4.4189      -3.2326        -0.8455       2.0318
  126       1.3359        1.3950      -0.0591        -0.5359       1.8718
  191       0.6029       -1.7161       2.3190         1.3701      -0.7672
  192       0.8260        1.0475      -0.2215         1.0854      -0.2594
  193       1.5420       -1.1238       2.6658         1.5908      -0.0488
 Sum       29.7210        8.7406      20.9803        -3.1962      32.9172

 Contributions to Isotropic shielding for atom  106 (    30.6363 ppm):
                         Standard Origin              Atomic Origin
 NLMO      Total    Paramagnetic  Diamagnetic   Paramagnetic  Diamagnetic
  120      -0.6822        0.3623      -1.0444        -1.3100       0.6278
  121      -0.1386        1.1875      -1.3260        -1.1821       1.0436
  122      -0.6171        0.4858      -1.1029        -0.6587       0.0416
  123       1.1268        0.6454       0.4815        -0.9597       2.0865
  124       0.5928        3.7856      -3.1928        -1.3816       1.9744
  125      26.1096        0.3509      25.7587         0.8282      25.2815
  126       1.1773        1.7027      -0.5254        -0.8234       2.0007
  191       0.2622       -0.8188       1.0810         0.6381      -0.3759
  193       1.0743       -0.9961       2.0704         1.5422      -0.4678
  194       1.0563        0.4751       0.5812         0.7925       0.2638
 Sum       29.9614        7.1803      22.7811        -2.5147      32.4761

 Contributions to Isotropic shielding for atom  107 (    30.5689 ppm):
                         Standard Origin              Atomic Origin
 NLMO      Total    Paramagnetic  Diamagnetic   Paramagnetic  Diamagnetic
  120      -1.0141        0.8366      -1.8507        -1.9180       0.9039
  121      -0.5051        1.7545      -2.2597        -2.0500       1.5448
  122      -1.6691        1.6813      -3.3504        -2.5594       0.8903
  123       2.7569       -4.6289       7.3859         1.3551       1.4019
  124       1.0931        1.8278      -0.7347        -0.7713       1.8644
  125       1.4213        2.2916      -0.8703        -0.6151       2.0364
  126      26.1476        0.9699      25.1776         1.0538      25.0937
  191       0.4132       -1.2985       1.7117         1.1653      -0.7520
  193       1.0296       -0.1582       1.1878         1.0719      -0.0423
 Sum       29.6733        3.2761      26.3973        -3.2676      32.9409

 Contributions to Isotropic shielding for atom  108 (    31.4762 ppm):
                         Standard Origin              Atomic Origin
 NLMO      Total    Paramagnetic  Diamagnetic   Paramagnetic  Diamagnetic
   76      -0.4134       -0.0771      -0.3363        -1.2557       0.8423
   81      -0.3707        0.7598      -1.1306        -1.0905       0.7197
   82       1.1851        0.0697       1.1154        -0.0176       1.2026
   87      -0.2043        0.8677      -1.0720        -1.1036       0.8994
  121       0.0506       -0.8764       0.9270        -1.0172       1.0679
  127      26.0446        0.1921      25.8525         0.6306      25.4140
  128       1.5263        3.7026      -2.1764        -0.4658       1.9921
  129       1.7770        0.4790       1.2980        -0.0355       1.8125
 Sum       29.5952        5.1175      24.4777        -4.3553      33.9505

 Contributions to Isotropic shielding for atom  109 (    30.7568 ppm):
                         Standard Origin              Atomic Origin
 NLMO      Total    Paramagnetic  Diamagnetic   Paramagnetic  Diamagnetic
   75      -0.5258        0.5222      -1.0480        -1.2356       0.7098
   76      -0.7622        0.1504      -0.9126        -2.1198       1.3576
   79      -0.4391        0.6533      -1.0924        -1.0672       0.6281
   82       1.1137        0.5077       0.6060        -0.0890       1.2026
  127       1.5716        3.6598      -2.0882        -0.3987       1.9703
  128      25.9682        0.1219      25.8464         0.6894      25.2788
  129       1.7465        0.8478       0.8987        -0.0516       1.7981
 Sum       28.6730        6.4630      22.2100        -4.2724      32.9453

 Contributions to Isotropic shielding for atom  110 (    31.9411 ppm):
                         Standard Origin              Atomic Origin
 NLMO      Total    Paramagnetic  Diamagnetic   Paramagnetic  Diamagnetic
   76      -0.5358       -0.2658      -0.2699        -1.7158       1.1801
   82       1.9259       -2.9645       4.8905         1.1506       0.7753
   86      -0.1788        0.5485      -0.7273        -1.2497       1.0709
  127       1.8598        1.3005       0.5593        -0.0445       1.9043
  128       1.8380        1.8315       0.0065        -0.0644       1.9025
  129      26.4289        0.8157      25.6131         0.6918      25.7370
 Sum       31.3381        1.2659      30.0722        -1.2320      32.5701
 
 1\1\GINC-PCSN02\SP\RHF\STO-3G\C45H56N4O5\ABENIDD\30-May-2024\0\\# nmr=
 giao hf/sto-3g pop=nbo geom=connectivity\\Pleiokomenine_C_2\\0,1\C,0,0
 .,0.,0.\C,0,1.403,0.,0.\C,0,2.0917,1.2324,0.\C,0,1.4059,2.4539,-0.0487
 \C,0,0.0243,2.4421,-0.1096\C,0,-0.6647,1.2138,-0.0695\N,0,-0.862,3.548
 8,-0.2348\C,0,-2.1447,1.5061,-0.0409\C,0,-2.0886,2.8998,-0.7667\C,0,-3
 .1491,0.6111,-0.7685\C,0,-1.8843,2.6689,-2.3349\C,0,-3.0003,1.8138,-2.
 9345\C,0,-3.9678,1.388,-1.8254\N,0,-4.0961,0.2187,0.2733\C,0,-4.988,-0
 .8365,-0.1485\C,0,-5.8708,-0.2606,-1.2688\C,0,-5.0681,0.4491,-2.3754\C
 ,0,-2.5546,1.3843,1.4506\C,0,-3.3527,0.079,1.5024\C,0,-4.5553,2.7048,-
 1.2041\C,0,-3.429,3.6606,-0.6853\C,0,-3.7842,4.3052,0.645\O,0,-4.7745,
 4.0424,1.3158\O,0,-2.9028,5.2972,0.9535\C,0,-3.1566,5.9406,2.202\C,0,-
 0.3272,4.7607,-0.8346\C,0,2.185,-1.2997,0.0571\C,0,1.6397,-2.4112,-0.8
 198\C,0,1.3687,-2.1797,-2.1772\C,0,1.4172,-3.6951,-0.2748\C,0,0.8822,-
 4.7346,-1.0467\C,0,0.5568,-4.4816,-2.3652\C,0,0.8228,-3.2103,-2.9239\N
 ,0,-0.0873,-5.3396,-3.2971\C,0,0.4678,-3.2736,-4.3931\C,0,-0.6549,-4.3
 625,-4.254\C,0,-0.1339,-2.0996,-5.1455\C,0,-1.9551,-3.7063,-3.5519\C,0
 ,-2.3982,-2.4217,-4.257\C,0,-1.6019,-2.2717,-5.5629\N,0,0.7505,-1.8906
 ,-6.3642\C,0,0.4663,-0.5292,-6.9066\C,0,-1.0021,-0.4912,-7.3769\C,0,-2
 .0243,-0.996,-6.3319\C,0,1.84,-3.4962,-5.0921\C,0,2.1012,-2.1611,-5.81
 19\C,0,-1.8489,-3.6085,-6.3434\C,0,-1.2163,-4.8492,-5.6094\C,0,-0.291,
 -5.6907,-6.4757\O,0,0.6579,-6.3501,-6.0717\O,0,-0.7613,-5.7528,-7.7567
 \C,0,0.0827,-6.4774,-8.6496\C,0,-0.8593,-6.4596,-2.7967\O,0,0.5728,-2.
 7905,-7.3852\H,0,-0.5583,-0.9302,0.0538\H,0,3.1795,1.2473,0.0378\H,0,1
 .963,3.3836,-0.0481\H,0,-2.6514,-0.2642,-1.2084\H,0,-0.9208,2.1976,-2.
 5659\H,0,-1.8563,3.6351,-2.8562\H,0,-3.5262,2.3775,-3.715\H,0,-2.5617,
 0.9383,-3.4275\H,0,-4.438,-1.7176,-0.5\H,0,-5.6337,-1.1557,0.6774\H,0,
 -6.4731,-1.0627,-1.7109\H,0,-6.5792,0.4561,-0.8334\H,0,-4.6008,-0.3257
 ,-2.9975\H,0,-5.7529,1.0011,-3.0301\H,0,-1.716,1.3478,2.1561\H,0,-3.19
 68,2.2019,1.7742\H,0,-2.6974,-0.7991,1.4976\H,0,-3.9983,0.0441,2.3849\
 H,0,-5.274,2.4647,-0.4139\H,0,-5.1352,3.2373,-1.9703\H,0,-3.402,4.511,
 -1.3839\H,0,-3.1402,5.2143,3.0207\H,0,-4.1138,6.4701,2.1705\H,0,-2.361
 8,6.6717,2.3735\H,0,0.1736,4.5619,-1.7888\H,0,0.3882,5.2385,-0.1568\H,
 0,-1.1247,5.4864,-1.0211\H,0,3.2254,-1.1272,-0.2468\H,0,2.2109,-1.6208
 ,1.1061\H,0,1.5739,-1.2118,-2.6225\H,0,1.6509,-3.8912,0.7701\H,0,0.710
 7,-5.7066,-0.5993\H,0,-0.0172,-1.1855,-4.5442\H,0,-1.8088,-3.4847,-2.4
 877\H,0,-2.7807,-4.4314,-3.5682\H,0,-3.4779,-2.4514,-4.448\H,0,-2.225,
 -1.5636,-3.5955\H,0,1.1603,-0.364,-7.7374\H,0,0.6661,0.1968,-6.1118\H,
 0,-1.1068,-1.1039,-8.281\H,0,-1.2602,0.5324,-7.6717\H,0,-2.1692,-0.181
 6,-5.61\H,0,-2.9964,-1.1486,-6.8161\H,0,2.6755,-3.7306,-4.4223\H,0,1.8
 021,-4.2969,-5.8297\H,0,2.3598,-1.3437,-5.1314\H,0,2.8182,-2.2345,-6.6
 346\H,0,-1.5463,-3.5283,-7.3892\H,0,-2.9347,-3.7754,-6.4042\H,0,-2.043
 ,-5.5469,-5.4051\H,0,0.0933,-7.5391,-8.385\H,0,-0.3259,-6.3762,-9.6589
 \H,0,1.0971,-6.0655,-8.6461\H,0,-1.3322,-6.9978,-3.624\H,0,-0.2106,-7.
 1768,-2.2825\H,0,-1.6453,-6.1394,-2.1042\\Version=ES64L-G16RevB.01\Sta
 te=1-A\HF=-2300.19553\RMSD=4.055e-09\Dipole=-0.2491339,1.1312691,0.310
 5412\Quadrupole=0.3719767,6.7067052,-7.0786819,12.7286859,7.3197099,-1
 2.1401635\PG=C01 [X(C45H56N4O5)]\\@


 "A LITTLE BIT GOES A LONG WAY"
 R.S. MULLIKEN AS QUOTED BY K. RUEDENBERG
 Job cpu time:       0 days  0 hours 12 minutes 12.3 seconds.
 Elapsed time:       0 days  0 hours  2 minutes  1.4 seconds.
 File lengths (MBytes):  RWF=     67 Int=      0 D2E=      0 Chk=     10 Scr=      1
 Normal termination of Gaussian 16 at Thu May 30 09:29:38 2024.
