 Entering Gaussian System, Link 0=g16
 Input=2_pleiokomenine_2a_c_12.gjf
 Output=2_pleiokomenine_2a_c_12.log
 Initial command:
 /opt/gaussian/g16/l1.exe "/data/abenidd/Elvis/pleiokomenine_C/NMR_HF/2a/2_pleiokomenine_2a_c_12/Gau-26955.inp" -scrdir="/data/abenidd/Elvis/pleiokomenine_C/NMR_HF/2a/2_pleiokomenine_2a_c_12/"
 Entering Link 1 = /opt/gaussian/g16/l1.exe PID=     26957.
  
 Copyright (c) 1988-2017, Gaussian, Inc.  All Rights Reserved.
  
 This is part of the Gaussian(R) 16 program.  It is based on
 the Gaussian(R) 09 system (copyright 2009, Gaussian, Inc.),
 the Gaussian(R) 03 system (copyright 2003, Gaussian, Inc.),
 the Gaussian(R) 98 system (copyright 1998, Gaussian, Inc.),
 the Gaussian(R) 94 system (copyright 1995, Gaussian, Inc.),
 the Gaussian 92(TM) system (copyright 1992, Gaussian, Inc.),
 the Gaussian 90(TM) system (copyright 1990, Gaussian, Inc.),
 the Gaussian 88(TM) system (copyright 1988, Gaussian, Inc.),
 the Gaussian 86(TM) system (copyright 1986, Carnegie Mellon
 University), and the Gaussian 82(TM) system (copyright 1983,
 Carnegie Mellon University). Gaussian is a federally registered
 trademark of Gaussian, Inc.
  
 This software contains proprietary and confidential information,
 including trade secrets, belonging to Gaussian, Inc.
  
 This software is provided under written license and may be
 used, copied, transmitted, or stored only in accord with that
 written license.
  
 The following legend is applicable only to US Government
 contracts under FAR:
  
                    RESTRICTED RIGHTS LEGEND
  
 Use, reproduction and disclosure by the US Government is
 subject to restrictions as set forth in subparagraphs (a)
 and (c) of the Commercial Computer Software - Restricted
 Rights clause in FAR 52.227-19.
  
 Gaussian, Inc.
 340 Quinnipiac St., Bldg. 40, Wallingford CT 06492
  
  
 ---------------------------------------------------------------
 Warning -- This program may not be used in any manner that
 competes with the business of Gaussian, Inc. or will provide
 assistance to any competitor of Gaussian, Inc.  The licensee
 of this program is prohibited from giving any competitor of
 Gaussian, Inc. access to this program.  By using this program,
 the user acknowledges that Gaussian, Inc. is engaged in the
 business of creating and licensing software in the field of
 computational chemistry and represents and warrants to the
 licensee that it is not a competitor of Gaussian, Inc. and that
 it will not use this program in any manner prohibited above.
 ---------------------------------------------------------------
  

 Cite this work as:
 Gaussian 16, Revision B.01,
 M. J. Frisch, G. W. Trucks, H. B. Schlegel, G. E. Scuseria, 
 M. A. Robb, J. R. Cheeseman, G. Scalmani, V. Barone, 
 G. A. Petersson, H. Nakatsuji, X. Li, M. Caricato, A. V. Marenich, 
 J. Bloino, B. G. Janesko, R. Gomperts, B. Mennucci, H. P. Hratchian, 
 J. V. Ortiz, A. F. Izmaylov, J. L. Sonnenberg, D. Williams-Young, 
 F. Ding, F. Lipparini, F. Egidi, J. Goings, B. Peng, A. Petrone, 
 T. Henderson, D. Ranasinghe, V. G. Zakrzewski, J. Gao, N. Rega, 
 G. Zheng, W. Liang, M. Hada, M. Ehara, K. Toyota, R. Fukuda, 
 J. Hasegawa, M. Ishida, T. Nakajima, Y. Honda, O. Kitao, H. Nakai, 
 T. Vreven, K. Throssell, J. A. Montgomery, Jr., J. E. Peralta, 
 F. Ogliaro, M. J. Bearpark, J. J. Heyd, E. N. Brothers, K. N. Kudin, 
 V. N. Staroverov, T. A. Keith, R. Kobayashi, J. Normand, 
 K. Raghavachari, A. P. Rendell, J. C. Burant, S. S. Iyengar, 
 J. Tomasi, M. Cossi, J. M. Millam, M. Klene, C. Adamo, R. Cammi, 
 J. W. Ochterski, R. L. Martin, K. Morokuma, O. Farkas, 
 J. B. Foresman, and D. J. Fox, Gaussian, Inc., Wallingford CT, 2016.
 
 ******************************************
 Gaussian 16:  ES64L-G16RevB.01 20-Dec-2017
                30-May-2024 
 ******************************************
 %nprocshared=8
 Will use up to    8 processors via shared memory.
 ----------------------------------------------
 # nmr=giao hf/sto-3g pop=nbo geom=connectivity
 ----------------------------------------------
 1/38=1,57=2,172=1/1;
 2/12=2,17=6,18=5,40=1/2;
 3/6=3,11=9,25=1,30=1/1,2,3,8;
 4//1;
 5/5=2,38=5/2;
 8/6=1,10=90,11=11/1;
 10/13=100,45=16/2;
 6/7=2,8=2,9=2,10=2,28=1,40=1,64=1/1,7;
 99/9=1/99;
 -----------------
 Pleiokomenine_C_2
 -----------------
 Symbolic Z-matrix:
 Charge =  0 Multiplicity = 1
 C                     0.        0.        0. 
 C                     1.4014    0.        0. 
 C                     2.0885    1.2315    0. 
 C                     1.3974    2.4523   -0.011 
 C                     0.0135    2.4414   -0.0125 
 C                    -0.6673    1.2139    0.0201 
 N                    -0.8764    3.5476   -0.0387 
 C                    -2.1431    1.4806    0.1708 
 C                    -2.1556    2.9241   -0.4668 
 C                    -3.1716    0.5949   -0.5459 
 C                    -2.1664    2.7826   -2.0506 
 C                    -3.4259    2.0515   -2.5352 
 C                    -4.1913    1.5036   -1.3139 
 N                    -3.7288   -0.2604    0.5085 
 C                    -4.968    -0.9398    0.1554 
 C                    -6.0107   -0.0726   -0.5496 
 C                    -5.4068    0.6692   -1.7422 
 C                    -2.4606    1.3017    1.6762 
 C                    -3.7623    0.5146    1.7409 
 C                    -4.6459    2.7692   -0.5091 
 C                    -3.4499    3.6922   -0.1465 
 C                    -3.5758    4.2749    1.2501 
 O                    -4.3204    3.8495    2.1247 
 O                    -2.8015    5.3885    1.3789 
 C                    -2.8365    5.9788    2.678 
 C                    -0.3851    4.7685   -0.6583 
 C                     2.1609   -1.3082    0.0651 
 C                     2.1126   -1.9489    1.4364 
 C                     0.9994   -2.714     1.8126 
 C                     3.1571   -1.7404    2.3626 
 C                     3.0973   -2.2647    3.6614 
 C                     1.9723   -2.9727    4.0416 
 C                     0.9398   -3.2032    3.1061 
 N                     1.6436   -3.4923    5.3258 
 C                    -0.1074   -4.0663    3.7733 
 C                     0.1625   -3.5707    5.2363 
 C                    -1.5942   -3.9003    3.5059 
 C                    -0.4046   -2.0644    5.4024 
 C                    -1.8669   -1.9491    4.9651 
 C                    -2.4158   -3.3569    4.6841 
 N                    -2.0949   -5.2721    3.0864 
 C                    -3.4195   -5.0914    2.4234 
 C                    -4.4088   -4.5326    3.4661 
 C                    -3.8975   -3.2938    4.2373 
 C                     0.2061   -5.4941    3.2442 
 C                    -0.96     -5.781     2.279 
 C                    -2.1677   -4.1582    6.0093 
 C                    -0.635    -4.3444    6.3116 
 C                    -0.2943   -5.7924    6.6255 
 O                    -1.0435   -6.5436    7.2427 
 O                     0.9869   -6.1084    6.3051 
 C                     1.3592   -7.4484    6.623 
 C                     2.3025   -2.9171    6.4839 
 O                    -2.259    -6.1761    4.1037 
 H                    -0.5651   -0.9253    0.0323 
 H                     3.1762    1.247     0.0208 
 H                     1.9535    3.3826   -0.0042 
 H                    -2.6788   -0.069    -1.2692 
 H                    -1.2814    2.2473   -2.4168 
 H                    -2.1245    3.7707   -2.5266 
 H                    -4.0579    2.7377   -3.1131 
 H                    -3.1417    1.2445   -3.2219 
 H                    -4.7085   -1.7703   -0.514 
 H                    -5.4119   -1.4099    1.0415 
 H                    -6.8311   -0.7096   -0.9009 
 H                    -6.4524    0.6357    0.1596 
 H                    -5.1061   -0.0659   -2.5 
 H                    -6.17      1.3038   -2.2081 
 H                    -1.6917    0.6932    2.1748 
 H                    -2.4952    2.2306    2.2442 
 H                    -3.7776   -0.1369    2.6205 
 H                    -4.6278    1.1747    1.8123 
 H                    -5.2323    2.493     0.3673 
 H                    -5.3439    3.3524   -1.1271 
 H                    -3.5231    4.5682   -0.8093 
 H                    -2.1434    6.8245    2.6843 
 H                    -3.841     6.3518    2.9005 
 H                    -2.5115    5.26      3.4369 
 H                     0.0323    4.5844   -1.6547 
 H                     0.3876    5.2302   -0.0342 
 H                    -1.1906    5.5017   -0.7632 
 H                     1.7504   -2.0021   -0.6806 
 H                     3.2054   -1.1547   -0.2356 
 H                     0.1979   -2.9066    1.1085 
 H                     4.0238   -1.1472    2.078 
 H                     3.9097   -2.0801    4.3544 
 H                    -1.7348   -3.2602    2.622 
 H                     0.181    -1.3183    4.8515 
 H                    -0.3178   -1.7569    6.4538 
 H                    -2.452    -1.4403    5.7409 
 H                    -1.9315   -1.32      4.0682 
 H                    -3.7319   -6.0753    2.0581 
 H                    -3.2812   -4.4122    1.5758 
 H                    -5.3547   -4.2862    2.9701 
 H                    -4.6434   -5.3166    4.1969 
 H                    -4.0263   -2.4318    3.5692 
 H                    -4.5471   -3.1072    5.1009 
 H                     1.164    -5.6034    2.7227 
 H                     0.1999   -6.2366    4.0423 
 H                    -0.9141   -5.2006    1.3523 
 H                    -1.1121   -6.8445    2.0737 
 H                    -2.7157   -5.1031    6.0279 
 H                    -2.6067   -3.5904    6.8429 
 H                    -0.4424   -3.8551    7.279 
 H                     1.3486   -7.6003    7.7067 
 H                     2.378    -7.6111    6.2607 
 H                     0.6976   -8.1631    6.1231 
 H                     1.9069   -3.3564    7.4049 
 H                     3.3753   -3.1371    6.4644 
 H                     2.169    -1.8314    6.5386 
 
 Stoichiometry    C45H56N4O5
 Framework group  C1[X(C45H56N4O5)]
 Deg. of freedom   324
 Full point group                 C1      NOp   1
 Largest Abelian subgroup         C1      NOp   1
 Largest concise Abelian subgroup C1      NOp   1
                         Standard orientation:                         
 ---------------------------------------------------------------------
 Center     Atomic      Atomic             Coordinates (Angstroms)
 Number     Number       Type             X           Y           Z
 ---------------------------------------------------------------------
      1          6           0       -1.704763    1.631832   -1.544722
      2          6           0       -1.334715    2.965986   -1.761560
      3          6           0       -2.139519    3.996725   -1.233765
      4          6           0       -3.305589    3.712256   -0.507507
      5          6           0       -3.663093    2.391447   -0.300254
      6          6           0       -2.842306    1.367536   -0.799477
      7          7           0       -4.798052    1.882854    0.384940
      8          6           0       -3.364580    0.042296   -0.306736
      9          6           0       -4.866619    0.479521   -0.099135
     10          6           0       -3.312096   -1.199073   -1.207947
     11          6           0       -5.607473    0.445052   -1.505729
     12          6           0       -5.615037   -0.971751   -2.095895
     13          6           0       -4.721893   -1.882696   -1.229824
     14          7           0       -2.207508   -2.003804   -0.673099
     15          6           0       -2.180432   -3.387056   -1.128908
     16          6           0       -3.529204   -4.106026   -1.115476
     17          6           0       -4.604850   -3.289880   -1.832518
     18          6           0       -2.495967   -0.332820    0.919576
     19          6           0       -2.174569   -1.813543    0.770256
     20          6           0       -5.422884   -1.938144    0.170763
     21          6           0       -5.651346   -0.521638    0.766698
     22          6           0       -5.400543   -0.480129    2.263781
     23          8           0       -4.786368   -1.329632    2.897384
     24          8           0       -6.018670    0.596018    2.825975
     25          6           0       -5.802359    0.727564    4.230697
     26          6           0       -5.979116    2.731413    0.415146
     27          6           0       -0.051510    3.288193   -2.497789
     28          6           0        1.185935    3.029751   -1.663984
     29          6           0        1.706927    1.731456   -1.568496
     30          6           0        1.792616    4.076731   -0.937300
     31          6           0        2.894836    3.843812   -0.102910
     32          6           0        3.369133    2.551697    0.027178
     33          6           0        2.778241    1.509525   -0.720532
     34          7           0        4.388737    2.064394    0.893285
     35          6           0        3.551561    0.240587   -0.440356
     36          6           0        4.012321    0.631467    1.006623
     37          6           0        2.882290   -1.120882   -0.350292
     38          6           0        2.745548    0.550224    2.010025
     39          6           0        2.032025   -0.801378    1.926939
     40          6           0        2.863468   -1.751077    1.050053
     41          7           0        3.623183   -2.012015   -1.332878
     42          6           0        2.772328   -3.209805   -1.593898
     43          6           0        2.624057   -3.993310   -0.273925
     44          6           0        2.181520   -3.136997    0.935080
     45          6           0        4.493384    0.108780   -1.670168
     46          6           0        3.896417   -1.077472   -2.451289
     47          6           0        4.283015   -1.775900    1.716432
     48          6           0        4.999342   -0.377331    1.638291
     49          6           0        6.417652   -0.499579    1.104658
     50          8           0        7.153171   -1.449994    1.354185
     51          8           0        6.836806    0.627367    0.473558
     52          6           0        8.179120    0.568182   -0.005982
     53          6           0        4.724579    2.853625    2.063979
     54          8           0        4.850631   -2.456955   -0.915211
     55          1           0       -1.095600    0.810490   -1.906494
     56          1           0       -1.853538    5.036721   -1.376546
     57          1           0       -3.900116    4.526088   -0.108800
     58          1           0       -3.039077   -0.924233   -2.235907
     59          1           0       -5.141932    1.128297   -2.227062
     60          1           0       -6.643580    0.792852   -1.404779
     61          1           0       -6.642091   -1.356612   -2.132042
     62          1           0       -5.262827   -0.939704   -3.134402
     63          1           0       -1.806624   -3.385919   -2.161107
     64          1           0       -1.444875   -3.964096   -0.555153
     65          1           0       -3.424529   -5.077629   -1.612736
     66          1           0       -3.831866   -4.318470   -0.084449
     67          1           0       -4.344080   -3.219280   -2.896505
     68          1           0       -5.565022   -3.816775   -1.780499
     69          1           0       -1.537615    0.207089    0.907685
     70          1           0       -2.943695   -0.088534    1.882145
     71          1           0       -1.184059   -2.037946    1.178809
     72          1           0       -2.893366   -2.436506    1.304267
     73          1           0       -4.885453   -2.591432    0.858229
     74          1           0       -6.406433   -2.416853    0.057982
     75          1           0       -6.728480   -0.315446    0.670233
     76          1           0       -6.293228    1.645956    4.564224
     77          1           0       -6.246720   -0.117349    4.765788
     78          1           0       -4.732973    0.808005    4.450173
     79          1           0       -6.257047    3.084491   -0.584363
     80          1           0       -5.809363    3.600708    1.059540
     81          1           0       -6.835376    2.190051    0.828863
     82          1           0       -0.005028    2.694173   -3.420316
     83          1           0       -0.060264    4.333139   -2.833906
     84          1           0        1.271061    0.918001   -2.137325
     85          1           0        1.393436    5.086681   -1.005926
     86          1           0        3.334020    4.665331    0.450754
     87          1           0        1.857432   -1.048333   -0.744219
     88          1           0        2.006552    1.342529    1.839088
     89          1           0        3.087356    0.714226    3.041433
     90          1           0        1.887064   -1.212154    2.933584
     91          1           0        1.029057   -0.659683    1.504627
     92          1           0        3.281430   -3.803702   -2.360187
     93          1           0        1.809314   -2.860219   -1.980239
     94          1           0        1.910350   -4.812492   -0.418903
     95          1           0        3.582788   -4.465217   -0.025127
     96          1           0        1.098067   -2.987955    0.835540
     97          1           0        2.324753   -3.708769    1.859832
     98          1           0        4.553539    0.993575   -2.314374
     99          1           0        5.515365   -0.133806   -1.378597
    100          1           0        2.945610   -0.845113   -2.940900
    101          1           0        4.597597   -1.545031   -3.148461
    102          1           0        4.905025   -2.586791    1.330370
    103          1           0        4.160451   -2.030239    2.779586
    104          1           0        5.178342   -0.055996    2.676114
    105          1           0        8.880478    0.498578    0.831182
    106          1           0        8.383695    1.492705   -0.552875
    107          1           0        8.308077   -0.274212   -0.693116
    108          1           0        5.466983    2.331565    2.675547
    109          1           0        5.173562    3.807903    1.768264
    110          1           0        3.849255    3.057893    2.689792
 ---------------------------------------------------------------------
 Rotational constants (GHZ):           0.0953756           0.0336102           0.0300117
 Standard basis: STO-3G (5D, 7F)
 There are   326 symmetry adapted cartesian basis functions of A   symmetry.
 There are   326 symmetry adapted basis functions of A   symmetry.
   326 basis functions,   978 primitive gaussians,   326 cartesian basis functions
   197 alpha electrons      197 beta electrons
       nuclear repulsion energy      8169.2007606713 Hartrees.
 NAtoms=  110 NActive=  110 NUniq=  110 SFac= 1.00D+00 NAtFMM=   60 NAOKFM=T Big=T
 Integral buffers will be    131072 words long.
 Raffenetti 1 integral format.
 Two-electron integral symmetry is turned on.
 One-electron integrals computed using PRISM.
 NBasis=   326 RedAO= T EigKep=  1.72D-01  NBF=   326
 NBsUse=   326 1.00D-06 EigRej= -1.00D+00 NBFU=   326
 ExpMin= 1.69D-01 ExpMax= 1.31D+02 ExpMxC= 1.31D+02 IAcc=3 IRadAn=         5 AccDes= 0.00D+00
 Harris functional with IExCor=  205 and IRadAn=       5 diagonalized for initial guess.
 HarFok:  IExCor=  205 AccDes= 0.00D+00 IRadAn=         5 IDoV= 1 UseB2=F ITyADJ=14
 ICtDFT=  3500011 ScaDFX=  1.000000  1.000000  1.000000  1.000000
 FoFCou: FMM=F IPFlag=           0 FMFlag=      100000 FMFlg1=        2001
         NFxFlg=           0 DoJE=T BraDBF=F KetDBF=T FulRan=T
         wScrn=  0.000000 ICntrl=       500 IOpCl=  0 I1Cent=   200000004 NGrid=           0
         NMat0=    1 NMatS0=      1 NMatT0=    0 NMatD0=    1 NMtDS0=    0 NMtDT0=    0
 Petite list used in FoFCou.
 Requested convergence on RMS density matrix=1.00D-08 within 128 cycles.
 Requested convergence on MAX density matrix=1.00D-06.
 Requested convergence on             energy=1.00D-06.
 No special actions if energy rises.
 Integral accuracy reduced to 1.0D-05 until final iterations.
 Initial convergence to 1.0D-05 achieved.  Increase integral accuracy.
 SCF Done:  E(RHF) =  -2300.19879288     A.U. after   16 cycles
            NFock= 16  Conv=0.39D-08     -V/T= 2.0093
 Range of M.O.s used for correlation:     1   326
 NBasis=   326 NAE=   197 NBE=   197 NFC=     0 NFV=     0
 NROrb=    326 NOA=   197 NOB=   197 NVA=   129 NVB=   129
          Differentiating once with respect to magnetic field using GIAOs.
          Electric field/nuclear overlap derivatives assumed to be zero.
 FoFCou: FMM=F IPFlag=           0 FMFlag=      100000 FMFlg1=        2001
         NFxFlg=           0 DoJE=F BraDBF=F KetDBF=T FulRan=T
         wScrn=  0.000000 ICntrl=      6100 IOpCl=  0 I1Cent=           7 NGrid=         110
         NMat0=    1 NMatS0=      1 NMatT0=    0 NMatD0=    1 NMtDS0=    0 NMtDT0=    0
 Symmetry not used in FoFCou.
 FoFJK:  IHMeth= 1 ICntrl=    6127 DoSepK=F KAlg= 0 I1Cent=           0 FoldK=F
 IRaf=         1 NMat=       1 IRICut=       1 DoRegI=T DoRafI=F ISym2E= 0 IDoP0=0 IntGTp=1.
          There are     3 degrees of freedom in the 1st order CPHF.  IDoFFX=0 NUNeed=     3.
      3 vectors produced by pass  0 Test12= 8.47D-13 3.33D-08 XBig12= 1.76D+02 2.19D+00.
 AX will form     3 AO Fock derivatives at one time.
      3 vectors produced by pass  1 Test12= 8.47D-13 3.33D-08 XBig12= 7.14D-01 2.25D-01.
      3 vectors produced by pass  2 Test12= 8.47D-13 3.33D-08 XBig12= 1.81D-02 2.98D-02.
      3 vectors produced by pass  3 Test12= 8.47D-13 3.33D-08 XBig12= 3.12D-04 4.07D-03.
      3 vectors produced by pass  4 Test12= 8.47D-13 3.33D-08 XBig12= 1.43D-05 8.25D-04.
      3 vectors produced by pass  5 Test12= 8.47D-13 3.33D-08 XBig12= 3.02D-07 1.01D-04.
      3 vectors produced by pass  6 Test12= 8.47D-13 3.33D-08 XBig12= 7.85D-09 2.07D-05.
      3 vectors produced by pass  7 Test12= 8.47D-13 3.33D-08 XBig12= 2.55D-10 4.44D-06.
      3 vectors produced by pass  8 Test12= 8.47D-13 3.33D-08 XBig12= 9.03D-12 4.96D-07.
      2 vectors produced by pass  9 Test12= 8.47D-13 3.33D-08 XBig12= 2.25D-13 8.15D-08.
 InvSVY:  IOpt=1 It=  1 EMax= 3.55D-15
 Solved reduced A of dimension    29 with     3 vectors.
 Calculating GIAO nuclear magnetic shielding tensors.
 SCF GIAO Magnetic shielding tensor (ppm):
      1  C    Isotropic =   125.2474   Anisotropy =   150.5452
   XX=   121.9524   YX=    36.9535   ZX=    70.3096
   XY=    36.7003   YY=    66.5917   ZY=   -22.3662
   XZ=    55.7652   YZ=   -15.6685   ZZ=   187.1980
   Eigenvalues:    32.8569   117.2744   225.6108
      2  C    Isotropic =   120.2738   Anisotropy =   156.8283
   XX=    90.6814   YX=   -14.1484   ZX=    85.5065
   XY=    -9.8621   YY=    92.4357   ZY=     2.1901
   XZ=    73.2537   YZ=     3.1868   ZZ=   177.7043
   Eigenvalues:    41.0041    94.9912   224.8259
      3  C    Isotropic =   119.4775   Anisotropy =   150.2687
   XX=   133.0422   YX=   -26.4692   ZX=    55.7038
   XY=   -23.4856   YY=    36.7195   ZY=     9.1974
   XZ=    47.1341   YZ=     2.4632   ZZ=   188.6709
   Eigenvalues:    28.3369   110.4391   219.6566
      4  C    Isotropic =   133.6444   Anisotropy =   142.5810
   XX=   134.0744   YX=    31.2244   ZX=    62.1989
   XY=    23.1885   YY=    80.3360   ZY=   -17.4669
   XZ=    64.1424   YZ=   -20.1706   ZZ=   186.5228
   Eigenvalues:    52.5396   119.6953   228.6984
      5  C    Isotropic =   109.3745   Anisotropy =   126.9427
   XX=    87.5565   YX=    -4.0389   ZX=    65.6537
   XY=    -1.0500   YY=    91.6846   ZY=     0.3590
   XZ=    72.1538   YZ=    17.4984   ZZ=   148.8824
   Eigenvalues:    41.8143    92.3063   194.0029
      6  C    Isotropic =   117.6302   Anisotropy =   140.5565
   XX=   134.5681   YX=    -5.2949   ZX=    56.0826
   XY=    -7.1288   YY=    51.7217   ZY=    10.1267
   XZ=    61.1183   YZ=    -0.1066   ZZ=   166.6009
   Eigenvalues:    50.1190    91.4371   211.3346
      7  N    Isotropic =   274.4000   Anisotropy =    82.4266
   XX=   299.6624   YX=    28.1971   ZX=   -10.8418
   XY=    47.7866   YY=   271.2523   ZY=    -7.5072
   XZ=   -19.6421   YZ=    -4.7279   ZZ=   252.2853
   Eigenvalues:   242.8028   251.0461   329.3511
      8  C    Isotropic =   196.1131   Anisotropy =    13.0085
   XX=   194.5896   YX=    -8.3044   ZX=    -2.2603
   XY=    -7.1824   YY=   197.4551   ZY=     6.5867
   XZ=    -0.1495   YZ=    -1.4592   ZZ=   196.2947
   Eigenvalues:   188.0818   195.4721   204.7855
      9  C    Isotropic =   181.1164   Anisotropy =    45.0503
   XX=   176.4713   YX=    -0.7804   ZX=   -17.8230
   XY=    -3.4248   YY=   205.9000   ZY=     9.0543
   XZ=    -5.2401   YZ=    20.3606   ZZ=   160.9780
   Eigenvalues:   152.0328   180.1665   211.1500
     10  C    Isotropic =   190.3541   Anisotropy =    30.5705
   XX=   192.8207   YX=   -13.3232   ZX=    13.8122
   XY=   -10.4385   YY=   198.1527   ZY=    -3.3433
   XZ=     9.7189   YZ=    -1.8120   ZZ=   180.0889
   Eigenvalues:   172.3635   187.9644   210.7344
     11  C    Isotropic =   213.8012   Anisotropy =    19.3703
   XX=   210.1785   YX=     0.1600   ZX=     8.4121
   XY=    -1.8235   YY=   210.4193   ZY=     5.4364
   XZ=    11.0606   YZ=    -1.0724   ZZ=   220.8059
   Eigenvalues:   203.8813   210.8077   226.7147
     12  C    Isotropic =   212.7613   Anisotropy =    21.4737
   XX=   210.5855   YX=    -8.3381   ZX=     6.8836
   XY=    -9.5251   YY=   216.3686   ZY=    -6.1897
   XZ=     6.4537   YZ=    -4.0942   ZZ=   211.3298
   Eigenvalues:   202.9814   208.2253   227.0771
     13  C    Isotropic =   213.5883   Anisotropy =     8.2641
   XX=   210.1193   YX=     3.0784   ZX=    -1.3350
   XY=     1.6986   YY=   213.4688   ZY=     3.1087
   XZ=     2.4470   YZ=     2.7338   ZZ=   217.1770
   Eigenvalues:   208.7731   212.8942   219.0977
     14  N    Isotropic =   301.8535   Anisotropy =    54.2914
   XX=   277.9625   YX=   -47.1313   ZX=    20.3578
   XY=   -32.2001   YY=   307.0897   ZY=     4.8962
   XZ=    28.4467   YZ=    15.2545   ZZ=   320.5083
   Eigenvalues:   241.7929   325.7199   338.0478
     15  C    Isotropic =   205.2755   Anisotropy =    33.3542
   XX=   202.3259   YX=    -1.2747   ZX=    -2.6598
   XY=    -1.5193   YY=   222.0038   ZY=    16.1513
   XZ=    -1.7849   YZ=    11.4952   ZZ=   191.4967
   Eigenvalues:   186.0128   202.3021   227.5116
     16  C    Isotropic =   224.2305   Anisotropy =     9.5476
   XX=   229.4568   YX=    -3.1958   ZX=     1.9885
   XY=    -1.4241   YY=   224.9012   ZY=    -1.5988
   XZ=     1.7809   YZ=     3.1709   ZZ=   218.3335
   Eigenvalues:   217.8247   224.2713   230.5956
     17  C    Isotropic =   215.3567   Anisotropy =    19.4248
   XX=   210.4290   YX=    -3.1399   ZX=     0.9968
   XY=    -7.2760   YY=   224.8015   ZY=     6.9733
   XZ=    -1.5730   YZ=     4.6425   ZZ=   210.8397
   Eigenvalues:   207.4296   210.3340   228.3066
     18  C    Isotropic =   210.6495   Anisotropy =    37.0038
   XX=   206.0998   YX=    -7.0541   ZX=    17.6144
   XY=    -8.6007   YY=   217.0824   ZY=    -6.3585
   XZ=    19.2010   YZ=   -14.8518   ZZ=   208.7661
   Eigenvalues:   188.8826   207.7471   235.3187
     19  C    Isotropic =   199.9581   Anisotropy =    39.9067
   XX=   181.7809   YX=    -6.5794   ZX=     4.6181
   XY=    -8.8408   YY=   196.9273   ZY=    12.9197
   XZ=    10.8241   YZ=    11.1936   ZZ=   221.1662
   Eigenvalues:   175.3305   197.9814   226.5626
     20  C    Isotropic =   212.1569   Anisotropy =    21.0020
   XX=   205.2672   YX=     3.8148   ZX=    -8.3830
   XY=     1.7776   YY=   211.1580   ZY=     7.3237
   XZ=    -9.0865   YZ=     7.0127   ZZ=   220.0455
   Eigenvalues:   198.5367   211.7758   226.1583
     21  C    Isotropic =   209.1082   Anisotropy =     9.5305
   XX=   205.4222   YX=     6.5251   ZX=     0.0998
   XY=     6.5503   YY=   206.8224   ZY=    -4.8315
   XZ=    -1.7730   YZ=     3.5823   ZZ=   215.0801
   Eigenvalues:   199.5445   212.3183   215.4619
     22  C    Isotropic =    96.4456   Anisotropy =    98.4170
   XX=   148.8499   YX=    21.6325   ZX=    35.5263
   XY=    16.7551   YY=   111.3680   ZY=   -91.2398
   XZ=    23.0013   YZ=   -72.6149   ZZ=    29.1190
   Eigenvalues:   -28.3334   155.6133   162.0570
     23  O    Isotropic =  -134.5591   Anisotropy =   888.6239
   XX=   168.2055   YX=   432.4045   ZX=  -129.0599
   XY=   441.4737   YY=  -239.5102   ZY=    37.9908
   XZ=  -148.3416   YZ=    47.7127   ZZ=  -332.3726
   Eigenvalues:  -571.0457  -290.4884   457.8568
     24  O    Isotropic =   283.7680   Anisotropy =   139.9973
   XX=   343.0611   YX=    -5.6999   ZX=   -98.2956
   XY=    18.5779   YY=   359.9495   ZY=   119.1796
   XZ=   -35.9414   YZ=   -15.3825   ZZ=   148.2934
   Eigenvalues:   116.5077   357.6968   377.0996
     25  C    Isotropic =   197.3731   Anisotropy =    57.1981
   XX=   179.5847   YX=     0.6252   ZX=     4.4015
   XY=     1.3044   YY=   178.5554   ZY=     8.3903
   XZ=     4.1321   YZ=     7.9961   ZZ=   233.9793
   Eigenvalues:   177.3089   179.3053   235.5052
     26  C    Isotropic =   209.9594   Anisotropy =    42.1677
   XX=   221.5122   YX=   -21.0036   ZX=    -3.2433
   XY=   -21.7352   YY=   209.6028   ZY=     2.2358
   XZ=    -4.2650   YZ=    -0.2173   ZZ=   198.7631
   Eigenvalues:   192.9822   198.8248   238.0712
     27  C    Isotropic =   206.5310   Anisotropy =    15.0679
   XX=   216.4893   YX=     0.0554   ZX=     1.7171
   XY=     0.1227   YY=   200.9947   ZY=    -5.5993
   XZ=     0.4590   YZ=    -3.9314   ZZ=   202.1090
   Eigenvalues:   196.7224   206.2943   216.5763
     28  C    Isotropic =   120.6581   Anisotropy =   156.9518
   XX=   111.8247   YX=    28.5170   ZX=   -82.9755
   XY=    24.8363   YY=    98.6097   ZY=   -14.8993
   XZ=   -86.8419   YZ=   -15.3192   ZZ=   151.5398
   Eigenvalues:    41.9390    94.7425   225.2926
     29  C    Isotropic =   127.5669   Anisotropy =   146.0294
   XX=   145.5490   YX=    -7.3430   ZX=   -68.1550
   XY=   -15.8368   YY=    74.8950   ZY=   -51.1076
   XZ=   -58.5116   YZ=   -52.2133   ZZ=   162.2567
   Eigenvalues:    35.8025   121.9784   224.9199
     30  C    Isotropic =   119.4805   Anisotropy =   151.6801
   XX=   136.0098   YX=    41.7859   ZX=   -57.7865
   XY=    42.9067   YY=    45.7275   ZY=    -9.9032
   XZ=   -50.2740   YZ=   -11.9585   ZZ=   176.7042
   Eigenvalues:    28.2185   109.6225   220.6006
     31  C    Isotropic =   133.5784   Anisotropy =   143.7784
   XX=   154.5581   YX=    -6.0020   ZX=   -64.2863
   XY=    -5.2257   YY=    85.0673   ZY=   -38.0398
   XZ=   -67.0512   YZ=   -50.3879   ZZ=   161.1099
   Eigenvalues:    51.2466   120.0579   229.4307
     32  C    Isotropic =   107.5800   Anisotropy =   130.8822
   XX=   111.1410   YX=    24.6723   ZX=   -72.3279
   XY=    11.8936   YY=    92.5579   ZY=   -13.7633
   XZ=   -77.2014   YZ=   -13.0730   ZZ=   119.0412
   Eigenvalues:    39.8930    88.0123   194.8348
     33  C    Isotropic =   117.3091   Anisotropy =   142.1993
   XX=   135.3746   YX=    14.7148   ZX=   -60.5082
   XY=    28.4636   YY=    54.3320   ZY=   -10.1368
   XZ=   -57.0160   YZ=   -11.2628   ZZ=   162.2207
   Eigenvalues:    48.7407    91.0779   212.1087
     34  N    Isotropic =   271.0197   Anisotropy =    82.7547
   XX=   266.9987   YX=   -12.9900   ZX=    28.3707
   XY=   -23.7958   YY=   269.3345   ZY=   -45.0652
   XZ=    17.0154   YZ=   -32.1469   ZZ=   276.7260
   Eigenvalues:   234.1234   252.7463   326.1895
     35  C    Isotropic =   200.9565   Anisotropy =    16.9881
   XX=   207.8606   YX=     1.7728   ZX=    -1.2585
   XY=     9.5131   YY=   198.9512   ZY=     5.9307
   XZ=     5.0243   YZ=     8.7069   ZZ=   196.0576
   Eigenvalues:   189.7622   200.8253   212.2819
     36  C    Isotropic =   178.8415   Anisotropy =    38.9543
   XX=   170.2831   YX=    17.7262   ZX=     8.4275
   XY=     4.5611   YY=   199.6471   ZY=     5.0860
   XZ=    21.3902   YZ=    -0.5944   ZZ=   166.5944
   Eigenvalues:   152.6756   179.0380   204.8110
     37  C    Isotropic =   183.3695   Anisotropy =    41.9697
   XX=   175.4528   YX=    -1.4499   ZX=   -24.1326
   XY=    -4.9729   YY=   188.0616   ZY=    16.0696
   XZ=   -17.4410   YZ=    14.4176   ZZ=   186.5940
   Eigenvalues:   157.7536   181.0055   211.3492
     38  C    Isotropic =   210.9972   Anisotropy =    23.5153
   XX=   216.8921   YX=    -2.1703   ZX=   -15.2333
   XY=     5.3204   YY=   206.0984   ZY=    -2.0656
   XZ=    -9.2967   YZ=    -4.2437   ZZ=   210.0012
   Eigenvalues:   200.2590   206.0586   226.6741
     39  C    Isotropic =   212.8775   Anisotropy =    18.6140
   XX=   214.3391   YX=    -2.4872   ZX=    -4.1252
   XY=    -6.4854   YY=   216.8871   ZY=     8.0151
   XZ=    -3.5204   YZ=     9.6903   ZZ=   207.4063
   Eigenvalues:   202.0155   211.3302   225.2868
     40  C    Isotropic =   211.4697   Anisotropy =    10.5933
   XX=   212.0101   YX=     2.3192   ZX=    -0.7230
   XY=     3.5873   YY=   216.2425   ZY=    -2.7986
   XZ=     0.1593   YZ=    -3.8078   ZZ=   206.1564
   Eigenvalues:   205.1176   210.7595   218.5319
     41  N    Isotropic =   235.4398   Anisotropy =    23.8858
   XX=   237.1983   YX=   -27.6648   ZX=     6.1011
   XY=    -5.0481   YY=   227.6858   ZY=    10.6942
   XZ=    11.2136   YZ=    -0.1286   ZZ=   241.4353
   Eigenvalues:   212.3188   242.6369   251.3636
     42  C    Isotropic =   193.6997   Anisotropy =    49.7959
   XX=   191.7231   YX=    21.1417   ZX=     5.6708
   XY=    26.7210   YY=   208.2683   ZY=     8.1795
   XZ=     3.9867   YZ=     5.8299   ZZ=   181.1078
   Eigenvalues:   174.6714   179.5309   226.8970
     43  C    Isotropic =   219.1723   Anisotropy =     8.7161
   XX=   209.9340   YX=     2.5327   ZX=    -5.7985
   XY=    -0.3260   YY=   224.3347   ZY=     0.2219
   XZ=    -4.0758   YZ=    -0.0089   ZZ=   223.2483
   Eigenvalues:   208.2305   224.3035   224.9830
     44  C    Isotropic =   214.8326   Anisotropy =    21.3231
   XX=   212.2114   YX=     5.3826   ZX=    -1.5366
   XY=     7.7775   YY=   225.9402   ZY=     5.8454
   XZ=    -3.0763   YZ=     2.8867   ZZ=   206.3463
   Eigenvalues:   203.5711   211.8788   229.0480
     45  C    Isotropic =   206.6822   Anisotropy =    33.4992
   XX=   194.9381   YX=     6.2101   ZX=   -20.5413
   XY=     2.6570   YY=   210.5923   ZY=     8.4978
   XZ=   -16.9749   YZ=    13.6428   ZZ=   214.5162
   Eigenvalues:   180.4393   210.5923   229.0150
     46  C    Isotropic =   190.6345   Anisotropy =    51.6772
   XX=   164.5539   YX=    11.5161   ZX=    -9.9084
   XY=     5.2304   YY=   202.1866   ZY=   -22.2141
   XZ=   -14.8911   YZ=   -13.2360   ZZ=   205.1630
   Eigenvalues:   160.7507   186.0669   225.0860
     47  C    Isotropic =   211.1151   Anisotropy =    26.0293
   XX=   223.8759   YX=     7.8580   ZX=     6.8158
   XY=     7.6822   YY=   210.9164   ZY=    -4.1680
   XZ=     8.1708   YZ=    -3.5381   ZZ=   198.5531
   Eigenvalues:   194.3227   210.5546   228.4680
     48  C    Isotropic =   207.5832   Anisotropy =    13.2259
   XX=   215.9299   YX=     0.9602   ZX=    -0.3096
   XY=    -5.4663   YY=   204.3908   ZY=     0.1369
   XZ=    -1.6863   YZ=    -2.0794   ZZ=   202.4289
   Eigenvalues:   201.7889   204.5602   216.4004
     49  C    Isotropic =    98.4691   Anisotropy =   103.6557
   XX=    61.3827   YX=   -57.4644   ZX=    63.2839
   XY=   -81.4277   YY=   121.5591   ZY=    43.1549
   XZ=    73.9398   YZ=    41.5109   ZZ=   112.4656
   Eigenvalues:   -29.8545   157.6890   167.5729
     50  O    Isotropic =  -133.0674   Anisotropy =   875.2937
   XX=  -313.6974   YX=   216.4237   ZX=   141.3522
   XY=   199.8449   YY=  -337.1912   ZY=   318.5071
   XZ=   158.3868   YZ=   303.5922   ZZ=   251.6865
   Eigenvalues:  -560.1745  -289.4894   450.4618
     51  O    Isotropic =   286.2878   Anisotropy =   132.3876
   XX=   157.5132   YX=    13.0497   ZX=    70.8088
   XY=   130.3080   YY=   349.5492   ZY=   -38.8728
   XZ=     1.5866   YZ=     5.5566   ZZ=   351.8011
   Eigenvalues:   126.7380   357.5792   374.5462
     52  C    Isotropic =   197.5653   Anisotropy =    58.4896
   XX=   230.2712   YX=     1.4667   ZX=   -17.8576
   XY=     1.8447   YY=   177.8286   ZY=     0.1216
   XZ=   -18.1847   YZ=     0.9035   ZZ=   184.5962
   Eigenvalues:   177.0063   179.1313   236.5584
     53  C    Isotropic =   210.7324   Anisotropy =    41.6072
   XX=   203.3838   YX=     6.4652   ZX=     8.8214
   XY=     8.0886   YY=   208.1801   ZY=    19.0970
   XZ=     8.3885   YZ=    19.8843   ZZ=   220.6335
   Eigenvalues:   193.8462   199.8805   238.4706
     54  O    Isotropic =    79.5888   Anisotropy =   398.2572
   XX=   279.2216   YX=  -133.4205   ZX=    63.6478
   XY=  -118.6543   YY=   -11.6329   ZY=   -28.3862
   XZ=    89.4139   YZ=   -41.7257   ZZ=   -28.8223
   Eigenvalues:   -61.2585   -45.0686   345.0936
     55  H    Isotropic =    25.6922   Anisotropy =    14.1658
   XX=    30.6590   YX=     4.8775   ZX=    -2.4525
   XY=     4.5708   YY=    26.8705   ZY=    -2.8943
   XZ=    -4.2864   YZ=    -3.0826   ZZ=    19.5470
   Eigenvalues:    18.2094    23.7311    35.1361
     56  H    Isotropic =    25.7173   Anisotropy =     6.6332
   XX=    28.0849   YX=    -2.0042   ZX=    -2.7203
   XY=    -0.9963   YY=    27.5871   ZY=    -0.0140
   XZ=    -3.5147   YZ=     0.2455   ZZ=    21.4798
   Eigenvalues:    20.2129    26.7995    30.1394
     57  H    Isotropic =    26.6123   Anisotropy =     7.9701
   XX=    27.2604   YX=     1.6884   ZX=    -3.2184
   XY=     1.5588   YY=    31.0254   ZY=    -0.2920
   XZ=    -3.9309   YZ=    -0.4200   ZZ=    21.5512
   Eigenvalues:    19.8178    28.0934    31.9257
     58  H    Isotropic =    31.4997   Anisotropy =     8.0755
   XX=    30.6627   YX=     1.4515   ZX=    -2.2332
   XY=     1.0037   YY=    29.4964   ZY=    -3.1721
   XZ=    -3.8844   YZ=    -1.0703   ZZ=    34.3402
   Eigenvalues:    28.6813    28.9345    36.8834
     59  H    Isotropic =    32.8862   Anisotropy =     8.8046
   XX=    29.5630   YX=     3.1603   ZX=     0.2725
   XY=     1.4717   YY=    34.2797   ZY=    -5.0743
   XZ=     2.8829   YZ=    -3.2794   ZZ=    34.8159
   Eigenvalues:    27.1561    32.7465    38.7559
     60  H    Isotropic =    32.1668   Anisotropy =    14.1015
   XX=    38.3532   YX=    -5.3410   ZX=     2.8113
   XY=    -5.3604   YY=    31.0804   ZY=     1.4706
   XZ=     4.2906   YZ=     2.1705   ZZ=    27.0668
   Eigenvalues:    24.1497    30.7829    41.5678
     61  H    Isotropic =    32.3308   Anisotropy =    15.5557
   XX=    39.6867   YX=     2.9006   ZX=     5.6058
   XY=     2.5820   YY=    29.4465   ZY=     1.8962
   XZ=     5.5365   YZ=     1.9605   ZZ=    27.8590
   Eigenvalues:    25.4651    28.8259    42.7012
     62  H    Isotropic =    32.5625   Anisotropy =    13.3944
   XX=    27.4000   YX=    -0.3783   ZX=     0.8920
   XY=    -0.9709   YY=    28.8809   ZY=    -0.2600
   XZ=     1.2523   YZ=     0.8057   ZZ=    41.4066
   Eigenvalues:    27.0547    29.1408    41.4921
     63  H    Isotropic =    31.8440   Anisotropy =    13.1513
   XX=    32.9706   YX=    -0.7037   ZX=    -5.5536
   XY=    -1.5644   YY=    28.4731   ZY=     4.6712
   XZ=    -6.0241   YZ=     3.7271   ZZ=    34.0884
   Eigenvalues:    25.5598    29.3608    40.6116
     64  H    Isotropic =    31.8592   Anisotropy =    15.0273
   XX=    37.2800   YX=    -4.8733   ZX=     4.0828
   XY=    -5.8049   YY=    33.1990   ZY=    -0.5785
   XZ=     4.3677   YZ=    -0.9137   ZZ=    25.0987
   Eigenvalues:    23.6746    30.0257    41.8774
     65  H    Isotropic =    32.6177   Anisotropy =    17.5051
   XX=    28.5718   YX=    -1.0860   ZX=     0.5690
   XY=    -0.9011   YY=    42.3458   ZY=     5.5154
   XZ=     0.5927   YZ=     5.9716   ZZ=    26.9354
   Eigenvalues:    24.8292    28.7360    44.2877
     66  H    Isotropic =    32.5251   Anisotropy =    10.2097
   XX=    29.0178   YX=     1.2364   ZX=    -2.4230
   XY=     0.9565   YY=    33.7928   ZY=    -4.2126
   XZ=    -2.4653   YZ=    -4.5677   ZZ=    34.7647
   Eigenvalues:    28.0425    30.2012    39.3316
     67  H    Isotropic =    32.6363   Anisotropy =    12.9987
   XX=    27.6998   YX=    -0.9535   ZX=     0.5749
   XY=    -1.1825   YY=    30.0972   ZY=     3.5682
   XZ=     0.6233   YZ=     3.7208   ZZ=    40.1120
   Eigenvalues:    26.9576    29.6493    41.3022
     68  H    Isotropic =    32.4593   Anisotropy =    15.2003
   XX=    36.9046   YX=     6.1368   ZX=     2.5925
   XY=     5.8606   YY=    34.4734   ZY=     3.0288
   XZ=     2.0217   YZ=     2.7035   ZZ=    25.9999
   Eigenvalues:    25.0958    29.6893    42.5929
     69  H    Isotropic =    32.8648   Anisotropy =    15.0009
   XX=    40.7905   YX=     3.0456   ZX=     3.9234
   XY=     5.2630   YY=    31.6908   ZY=    -0.0819
   XZ=     3.2922   YZ=    -3.4222   ZZ=    26.1130
   Eigenvalues:    24.2277    31.5013    42.8654
     70  H    Isotropic =    33.1110   Anisotropy =    10.2820
   XX=    33.6369   YX=    -2.4414   ZX=    -2.3385
   XY=    -0.9219   YY=    27.2850   ZY=     2.5240
   XZ=    -2.5638   YZ=     1.6159   ZZ=    38.4110
   Eigenvalues:    26.6778    32.6895    39.9656
     71  H    Isotropic =    32.0333   Anisotropy =    17.9035
   XX=    40.3949   YX=    -3.5066   ZX=     5.6328
   XY=    -2.8135   YY=    27.4277   ZY=    -1.0310
   XZ=     7.3528   YZ=    -2.1258   ZZ=    28.2772
   Eigenvalues:    25.4282    26.7027    43.9690
     72  H    Isotropic =    31.9685   Anisotropy =     8.3750
   XX=    31.5678   YX=     0.9505   ZX=    -1.7809
   XY=     1.8813   YY=    31.0427   ZY=    -3.8692
   XZ=    -1.7934   YZ=    -4.8740   ZZ=    33.2951
   Eigenvalues:    27.6544    30.6993    37.5519
     73  H    Isotropic =    31.4120   Anisotropy =     8.9071
   XX=    28.8519   YX=    -2.1599   ZX=     0.1568
   XY=    -2.7798   YY=    32.6950   ZY=    -3.5976
   XZ=    -0.2326   YZ=    -4.9919   ZZ=    32.6892
   Eigenvalues:    26.7061    30.1799    37.3501
     74  H    Isotropic =    32.2109   Anisotropy =    15.1141
   XX=    37.8130   YX=     6.8537   ZX=    -1.9276
   XY=     6.3155   YY=    32.2845   ZY=     1.4882
   XZ=    -2.5896   YZ=     0.8926   ZZ=    26.5353
   Eigenvalues:    24.8211    29.5247    42.2870
     75  H    Isotropic =    31.2050   Anisotropy =    13.0101
   XX=    38.9790   YX=    -2.6239   ZX=    -2.2691
   XY=    -1.1912   YY=    27.4732   ZY=     2.1161
   XZ=    -2.7161   YZ=     1.2457   ZZ=    27.1629
   Eigenvalues:    25.6007    28.1360    39.8784
     76  H    Isotropic =    30.5765   Anisotropy =    12.1902
   XX=    27.6193   YX=    -3.6372   ZX=    -2.8595
   XY=    -3.7504   YY=    32.1729   ZY=     4.1479
   XZ=    -3.6995   YZ=     4.7502   ZZ=    31.9374
   Eigenvalues:    25.4028    27.6234    38.7033
     77  H    Isotropic =    30.6029   Anisotropy =    11.6802
   XX=    27.8910   YX=     1.6232   ZX=    -4.1212
   XY=     2.3893   YY=    29.5438   ZY=    -3.7005
   XZ=    -4.5496   YZ=    -3.3220   ZZ=    34.3740
   Eigenvalues:    25.6984    27.7207    38.3897
     78  H    Isotropic =    30.7184   Anisotropy =     7.4227
   XX=    33.3681   YX=     1.2463   ZX=     2.7488
   XY=     0.6014   YY=    26.0317   ZY=     1.8430
   XZ=     1.6853   YZ=     1.7273   ZZ=    32.7555
   Eigenvalues:    25.5687    30.9197    35.6669
     79  H    Isotropic =    31.9166   Anisotropy =    12.1809
   XX=    31.8670   YX=    -5.0856   ZX=     2.4731
   XY=    -5.0438   YY=    32.8612   ZY=    -3.3594
   XZ=     4.3530   YZ=    -3.4791   ZZ=    31.0216
   Eigenvalues:    27.2393    28.4733    40.0372
     80  H    Isotropic =    30.7509   Anisotropy =    14.4324
   XX=    27.5719   YX=    -2.1917   ZX=    -2.9578
   XY=    -2.1991   YY=    36.7417   ZY=     5.8116
   XZ=    -2.3744   YZ=     5.7084   ZZ=    27.9392
   Eigenvalues:    24.3199    27.5604    40.3725
     81  H    Isotropic =    30.9234   Anisotropy =    10.9740
   XX=    35.8091   YX=    -1.0455   ZX=    -5.6722
   XY=    -1.6027   YY=    30.3647   ZY=    -0.6778
   XZ=    -4.7126   YZ=    -1.0161   ZZ=    26.5963
   Eigenvalues:    23.9879    30.5429    38.2393
     82  H    Isotropic =    30.0364   Anisotropy =     7.8877
   XX=    26.4217   YX=    -0.4742   ZX=    -0.0427
   XY=    -0.5792   YY=    29.3382   ZY=     1.8217
   XZ=    -0.7511   YZ=     2.8205   ZZ=    34.3494
   Eigenvalues:    26.3295    28.4849    35.2949
     83  H    Isotropic =    29.8705   Anisotropy =    12.5489
   XX=    27.3038   YX=    -0.1854   ZX=     0.1004
   XY=    -0.3516   YY=    36.2018   ZY=    -4.4336
   XZ=     0.3946   YZ=    -5.4719   ZZ=    26.1057
   Eigenvalues:    24.0768    27.2982    38.2364
     84  H    Isotropic =    25.9159   Anisotropy =    12.2106
   XX=    29.8378   YX=    -4.6212   ZX=     2.7351
   XY=    -3.9743   YY=    26.6272   ZY=    -2.3014
   XZ=     3.8523   YZ=    -2.1448   ZZ=    21.2826
   Eigenvalues:    20.0459    23.6454    34.0563
     85  H    Isotropic =    25.7479   Anisotropy =     6.8607
   XX=    26.9639   YX=     1.6020   ZX=     3.5422
   XY=     0.9097   YY=    27.8303   ZY=     0.6311
   XZ=     4.4940   YZ=     1.3412   ZZ=    22.4496
   Eigenvalues:    20.0918    26.8303    30.3218
     86  H    Isotropic =    26.5139   Anisotropy =     7.7634
   XX=    25.8543   YX=    -1.4292   ZX=     4.2725
   XY=    -1.2147   YY=    30.9472   ZY=    -0.5060
   XZ=     4.1925   YZ=    -0.8036   ZZ=    22.7403
   Eigenvalues:    19.7831    28.0691    31.6896
     87  H    Isotropic =    31.5028   Anisotropy =    10.2226
   XX=    37.3364   YX=     0.3066   ZX=     3.2455
   XY=    -0.9947   YY=    30.3626   ZY=     0.3132
   XZ=     3.3743   YZ=    -1.2855   ZZ=    26.8093
   Eigenvalues:    25.8245    30.3660    38.3179
     88  H    Isotropic =    33.4785   Anisotropy =     8.4009
   XX=    35.2434   YX=    -3.2998   ZX=    -3.9449
   XY=    -4.1737   YY=    35.4154   ZY=    -0.3004
   XZ=     0.2712   YZ=    -2.3906   ZZ=    29.7767
   Eigenvalues:    28.2477    33.1087    39.0791
     89  H    Isotropic =    32.2588   Anisotropy =    12.4685
   XX=    27.8451   YX=     2.7787   ZX=    -0.6860
   XY=     1.9611   YY=    29.4134   ZY=     3.4176
   XZ=     1.3045   YZ=     3.1624   ZZ=    39.5179
   Eigenvalues:    25.9002    30.3051    40.5712
     90  H    Isotropic =    32.3405   Anisotropy =    13.5044
   XX=    29.7215   YX=     2.0455   ZX=    -4.6219
   XY=     2.1811   YY=    28.7351   ZY=    -2.7543
   XZ=    -3.7660   YZ=    -3.5852   ZZ=    38.5650
   Eigenvalues:    27.0552    28.6229    41.3434
     91  H    Isotropic =    33.0146   Anisotropy =    17.8897
   XX=    44.7093   YX=    -0.1338   ZX=     1.2317
   XY=    -1.0217   YY=    28.1918   ZY=     0.7308
   XZ=     2.7362   YZ=    -1.3824   ZZ=    26.1426
   Eigenvalues:    25.9024    28.2002    44.9410
     92  H    Isotropic =    30.7866   Anisotropy =    14.2473
   XX=    26.3436   YX=    -0.1404   ZX=    -2.9921
   XY=    -1.4790   YY=    33.1617   ZY=     6.6573
   XZ=    -3.3425   YZ=     6.7568   ZZ=    32.8544
   Eigenvalues:    24.3528    27.7222    40.2848
     93  H    Isotropic =    31.7252   Anisotropy =    11.5424
   XX=    36.4034   YX=     0.9568   ZX=     5.0322
   XY=     1.8921   YY=    29.0795   ZY=     1.2097
   XZ=     5.1105   YZ=     0.8190   ZZ=    29.6926
   Eigenvalues:    26.9417    28.8137    39.4201
     94  H    Isotropic =    32.2514   Anisotropy =    15.8079
   XX=    31.1296   YX=     6.7910   ZX=     0.1905
   XY=     6.1101   YY=    38.9342   ZY=     1.7804
   XZ=     0.6811   YZ=     2.0372   ZZ=    26.6904
   Eigenvalues:    26.2287    27.7354    42.7900
     95  H    Isotropic =    31.0543   Anisotropy =    14.1647
   XX=    32.3635   YX=    -6.4313   ZX=     1.4051
   XY=    -6.6738   YY=    34.7390   ZY=    -1.3536
   XZ=     1.8485   YZ=    -1.2296   ZZ=    26.0605
   Eigenvalues:    25.6356    27.0299    40.4974
     96  H    Isotropic =    32.5133   Anisotropy =    16.4093
   XX=    43.3320   YX=     1.4540   ZX=    -0.8622
   XY=     1.0886   YY=    29.2721   ZY=     1.5503
   XZ=    -0.0599   YZ=     0.8003   ZZ=    24.9359
   Eigenvalues:    24.6066    29.4805    43.4528
     97  H    Isotropic =    32.1057   Anisotropy =    13.9188
   XX=    26.7806   YX=     1.5187   ZX=    -0.1506
   XY=     1.5000   YY=    34.3518   ZY=    -6.4642
   XZ=     0.2984   YZ=    -6.6104   ZZ=    35.1847
   Eigenvalues:    26.0936    28.8385    41.3849
     98  H    Isotropic =    32.3341   Anisotropy =    11.0759
   XX=    29.6983   YX=    -0.0133   ZX=    -3.9709
   XY=     2.8732   YY=    34.0643   ZY=    -5.2373
   XZ=    -4.8723   YZ=    -3.4346   ZZ=    33.2396
   Eigenvalues:    26.4319    30.8523    39.7180
     99  H    Isotropic =    30.5195   Anisotropy =    14.1511
   XX=    39.7530   YX=     0.0755   ZX=     1.3041
   XY=     1.7276   YY=    24.0143   ZY=     2.1800
   XZ=     1.1653   YZ=     1.4442   ZZ=    27.7912
   Eigenvalues:    23.2767    28.3282    39.9535
    100  H    Isotropic =    31.3743   Anisotropy =    10.1626
   XX=    30.7811   YX=    -1.7617   ZX=     4.1212
   XY=    -1.5499   YY=    28.4116   ZY=    -2.0419
   XZ=     4.7255   YZ=    -0.5659   ZZ=    34.9301
   Eigenvalues:    27.3026    28.6710    38.1493
    101  H    Isotropic =    30.7762   Anisotropy =    15.1950
   XX=    29.0229   YX=    -2.2051   ZX=    -5.7599
   XY=    -0.5490   YY=    27.4621   ZY=     3.1206
   XZ=    -7.2788   YZ=     4.2548   ZZ=    35.8435
   Eigenvalues:    24.7616    26.6608    40.9062
    102  H    Isotropic =    30.0451   Anisotropy =    12.0979
   XX=    32.3131   YX=    -5.8178   ZX=     1.5900
   XY=    -4.9166   YY=    33.0316   ZY=     0.0698
   XZ=     2.8230   YZ=     1.6773   ZZ=    24.7905
   Eigenvalues:    23.4650    28.5600    38.1103
    103  H    Isotropic =    31.7729   Anisotropy =    14.2942
   XX=    28.2851   YX=     0.3916   ZX=     2.5939
   XY=     0.2717   YY=    29.3088   ZY=    -5.8238
   XZ=     3.3014   YZ=    -6.1378   ZZ=    37.7248
   Eigenvalues:    25.1938    28.8225    41.3024
    104  H    Isotropic =    31.4268   Anisotropy =    12.6425
   XX=    29.1081   YX=     1.1390   ZX=     5.6643
   XY=     0.2694   YY=    28.4463   ZY=     2.8676
   XZ=     4.5933   YZ=     2.0262   ZZ=    36.7259
   Eigenvalues:    26.3880    28.0372    39.8551
    105  H    Isotropic =    30.5612   Anisotropy =    12.6707
   XX=    37.0400   YX=     0.9868   ZX=     4.3557
   XY=     0.5895   YY=    25.8472   ZY=    -0.2374
   XZ=     4.4959   YZ=     0.3502   ZZ=    28.7964
   Eigenvalues:    25.7439    26.9314    39.0083
    106  H    Isotropic =    30.6013   Anisotropy =    11.1873
   XX=    32.2534   YX=     3.9541   ZX=    -2.8316
   XY=     3.5515   YY=    31.7370   ZY=    -3.8789
   XZ=    -2.9213   YZ=    -4.1285   ZZ=    27.8136
   Eigenvalues:    25.2710    28.4736    38.0595
    107  H    Isotropic =    30.4690   Anisotropy =     9.1701
   XX=    32.5545   YX=    -1.4782   ZX=    -3.0066
   XY=    -1.5767   YY=    29.0724   ZY=     4.5867
   XZ=    -3.4231   YZ=     3.8122   ZZ=    29.7800
   Eigenvalues:    25.0330    29.7916    36.5823
    108  H    Isotropic =    31.3212   Anisotropy =    11.7576
   XX=    31.6623   YX=    -0.5758   ZX=     7.0688
   XY=    -0.5873   YY=    30.5676   ZY=     1.5835
   XZ=     7.6809   YZ=     1.9821   ZZ=    31.7337
   Eigenvalues:    23.9018    30.9023    39.1596
    109  H    Isotropic =    30.7348   Anisotropy =    15.1028
   XX=    28.7939   YX=     5.7514   ZX=     2.1259
   XY=     5.6528   YY=    37.7311   ZY=     0.9399
   XZ=     2.5788   YZ=     1.4529   ZZ=    25.6795
   Eigenvalues:    24.0935    27.3075    40.8034
    110  H    Isotropic =    31.9973   Anisotropy =    10.9730
   XX=    30.2867   YX=    -0.7688   ZX=    -3.7005
   XY=    -0.9260   YY=    31.4408   ZY=     5.1852
   XZ=    -1.8526   YZ=     5.7270   ZZ=    34.2644
   Eigenvalues:    26.8401    29.8392    39.3127
 End of Minotr F.D. properties file   721 does not exist.
 End of Minotr F.D. properties file   722 does not exist.
 End of Minotr F.D. properties file   788 does not exist.
 Hyperfine terms turned off by default for NAtoms > 100.

 **********************************************************************

            Population analysis using the SCF Density.

 **********************************************************************

 Orbital symmetries:
       Occupied  (A) (A) (A) (A) (A) (A) (A) (A) (A) (A) (A) (A)
                 (A) (A) (A) (A) (A) (A) (A) (A) (A) (A) (A) (A)
                 (A) (A) (A) (A) (A) (A) (A) (A) (A) (A) (A) (A)
                 (A) (A) (A) (A) (A) (A) (A) (A) (A) (A) (A) (A)
                 (A) (A) (A) (A) (A) (A) (A) (A) (A) (A) (A) (A)
                 (A) (A) (A) (A) (A) (A) (A) (A) (A) (A) (A) (A)
                 (A) (A) (A) (A) (A) (A) (A) (A) (A) (A) (A) (A)
                 (A) (A) (A) (A) (A) (A) (A) (A) (A) (A) (A) (A)
                 (A) (A) (A) (A) (A) (A) (A) (A) (A) (A) (A) (A)
                 (A) (A) (A) (A) (A) (A) (A) (A) (A) (A) (A) (A)
                 (A) (A) (A) (A) (A) (A) (A) (A) (A) (A) (A) (A)
                 (A) (A) (A) (A) (A) (A) (A) (A) (A) (A) (A) (A)
                 (A) (A) (A) (A) (A) (A) (A) (A) (A) (A) (A) (A)
                 (A) (A) (A) (A) (A) (A) (A) (A) (A) (A) (A) (A)
                 (A) (A) (A) (A) (A) (A) (A) (A) (A) (A) (A) (A)
                 (A) (A) (A) (A) (A) (A) (A) (A) (A) (A) (A) (A)
                 (A) (A) (A) (A) (A)
       Virtual   (A) (A) (A) (A) (A) (A) (A) (A) (A) (A) (A) (A)
                 (A) (A) (A) (A) (A) (A) (A) (A) (A) (A) (A) (A)
                 (A) (A) (A) (A) (A) (A) (A) (A) (A) (A) (A) (A)
                 (A) (A) (A) (A) (A) (A) (A) (A) (A) (A) (A) (A)
                 (A) (A) (A) (A) (A) (A) (A) (A) (A) (A) (A) (A)
                 (A) (A) (A) (A) (A) (A) (A) (A) (A) (A) (A) (A)
                 (A) (A) (A) (A) (A) (A) (A) (A) (A) (A) (A) (A)
                 (A) (A) (A) (A) (A) (A) (A) (A) (A) (A) (A) (A)
                 (A) (A) (A) (A) (A) (A) (A) (A) (A) (A) (A) (A)
                 (A) (A) (A) (A) (A) (A) (A) (A) (A) (A) (A) (A)
                 (A) (A) (A) (A) (A) (A) (A) (A) (A)
 The electronic state is 1-A.
 Alpha  occ. eigenvalues --  -20.30840 -20.28881 -20.24826 -20.22094 -19.91770
 Alpha  occ. eigenvalues --  -15.48013 -15.33776 -15.33368 -15.31133 -11.16743
 Alpha  occ. eigenvalues --  -11.14527 -11.10731 -11.09700 -11.09416 -11.09224
 Alpha  occ. eigenvalues --  -11.09123 -11.09026 -11.08454 -11.08143 -11.07901
 Alpha  occ. eigenvalues --  -11.07471 -11.07409 -11.06666 -11.06554 -11.06318
 Alpha  occ. eigenvalues --  -11.06028 -11.06006 -11.05784 -11.05748 -11.05721
 Alpha  occ. eigenvalues --  -11.05465 -11.04909 -11.04750 -11.04696 -11.04593
 Alpha  occ. eigenvalues --  -11.04565 -11.04456 -11.04378 -11.04283 -11.04202
 Alpha  occ. eigenvalues --  -11.04055 -11.03890 -11.03477 -11.02943 -11.02304
 Alpha  occ. eigenvalues --  -11.02270 -11.02145 -11.01968 -11.01930 -11.01921
 Alpha  occ. eigenvalues --  -11.01876 -11.01704 -11.01526 -11.01482  -1.38060
 Alpha  occ. eigenvalues --   -1.35960  -1.29472  -1.27876  -1.25252  -1.21729
 Alpha  occ. eigenvalues --   -1.20693  -1.19261  -1.10308  -1.09978  -1.09027
 Alpha  occ. eigenvalues --   -1.07650  -1.05742  -1.05207  -1.02572  -1.01033
 Alpha  occ. eigenvalues --   -0.99312  -0.98637  -0.98582  -0.97420  -0.97135
 Alpha  occ. eigenvalues --   -0.96289  -0.95052  -0.94852  -0.94196  -0.92429
 Alpha  occ. eigenvalues --   -0.91848  -0.91531  -0.90083  -0.89531  -0.87988
 Alpha  occ. eigenvalues --   -0.86500  -0.84920  -0.82969  -0.82217  -0.80739
 Alpha  occ. eigenvalues --   -0.80283  -0.79969  -0.78169  -0.78021  -0.77631
 Alpha  occ. eigenvalues --   -0.77334  -0.74487  -0.74229  -0.72728  -0.72371
 Alpha  occ. eigenvalues --   -0.71442  -0.70344  -0.69700  -0.68346  -0.66221
 Alpha  occ. eigenvalues --   -0.65302  -0.65066  -0.64666  -0.63861  -0.63072
 Alpha  occ. eigenvalues --   -0.62542  -0.62153  -0.61567  -0.61409  -0.61137
 Alpha  occ. eigenvalues --   -0.60890  -0.60052  -0.59249  -0.58989  -0.58523
 Alpha  occ. eigenvalues --   -0.58442  -0.58188  -0.57726  -0.57634  -0.57392
 Alpha  occ. eigenvalues --   -0.57057  -0.56726  -0.56458  -0.55834  -0.55532
 Alpha  occ. eigenvalues --   -0.55053  -0.54871  -0.54588  -0.54490  -0.54333
 Alpha  occ. eigenvalues --   -0.54183  -0.54015  -0.53529  -0.52723  -0.52019
 Alpha  occ. eigenvalues --   -0.51679  -0.51224  -0.51009  -0.50569  -0.50351
 Alpha  occ. eigenvalues --   -0.50149  -0.49785  -0.49338  -0.49180  -0.48606
 Alpha  occ. eigenvalues --   -0.48323  -0.48177  -0.47837  -0.47295  -0.46979
 Alpha  occ. eigenvalues --   -0.46529  -0.46342  -0.45886  -0.45831  -0.45184
 Alpha  occ. eigenvalues --   -0.45174  -0.44769  -0.44646  -0.44355  -0.43923
 Alpha  occ. eigenvalues --   -0.43813  -0.43171  -0.42977  -0.42882  -0.42682
 Alpha  occ. eigenvalues --   -0.42374  -0.42003  -0.41606  -0.41386  -0.40878
 Alpha  occ. eigenvalues --   -0.40482  -0.39700  -0.38756  -0.38586  -0.37952
 Alpha  occ. eigenvalues --   -0.37718  -0.37087  -0.36791  -0.35397  -0.34395
 Alpha  occ. eigenvalues --   -0.33544  -0.32888  -0.32311  -0.31147  -0.30653
 Alpha  occ. eigenvalues --   -0.27568  -0.27137  -0.26580  -0.21367  -0.20374
 Alpha  occ. eigenvalues --   -0.15711  -0.15212
 Alpha virt. eigenvalues --    0.26531   0.26902   0.27350   0.29218   0.30223
 Alpha virt. eigenvalues --    0.33050   0.45821   0.47940   0.47970   0.49238
 Alpha virt. eigenvalues --    0.49395   0.50028   0.50502   0.51929   0.51981
 Alpha virt. eigenvalues --    0.53736   0.53912   0.54882   0.55425   0.55999
 Alpha virt. eigenvalues --    0.56798   0.57247   0.57630   0.58264   0.59289
 Alpha virt. eigenvalues --    0.59324   0.59625   0.59908   0.60360   0.60680
 Alpha virt. eigenvalues --    0.61210   0.61444   0.62203   0.62794   0.63009
 Alpha virt. eigenvalues --    0.63117   0.63445   0.63719   0.64192   0.64467
 Alpha virt. eigenvalues --    0.64693   0.64813   0.65029   0.65707   0.65867
 Alpha virt. eigenvalues --    0.66022   0.66527   0.66677   0.66859   0.67034
 Alpha virt. eigenvalues --    0.67550   0.67594   0.67715   0.68029   0.68127
 Alpha virt. eigenvalues --    0.68582   0.68801   0.69249   0.69389   0.69877
 Alpha virt. eigenvalues --    0.70141   0.70168   0.70394   0.70855   0.71053
 Alpha virt. eigenvalues --    0.71115   0.71178   0.71545   0.71995   0.72337
 Alpha virt. eigenvalues --    0.72577   0.72980   0.73296   0.73630   0.73659
 Alpha virt. eigenvalues --    0.73923   0.74317   0.74563   0.74677   0.74852
 Alpha virt. eigenvalues --    0.74901   0.75481   0.75621   0.76150   0.76278
 Alpha virt. eigenvalues --    0.76438   0.76619   0.77035   0.77232   0.77716
 Alpha virt. eigenvalues --    0.77786   0.78140   0.78374   0.78847   0.79452
 Alpha virt. eigenvalues --    0.79606   0.79804   0.80157   0.80383   0.80671
 Alpha virt. eigenvalues --    0.80998   0.81380   0.81770   0.81963   0.82276
 Alpha virt. eigenvalues --    0.83001   0.83857   0.84143   0.84524   0.84749
 Alpha virt. eigenvalues --    0.85787   0.85955   0.86273   0.87301   0.87992
 Alpha virt. eigenvalues --    0.88306   0.89150   0.90572   0.91265   0.94216
 Alpha virt. eigenvalues --    0.94603   0.95408   0.97952   1.01197   1.02458
 Alpha virt. eigenvalues --    1.10453   1.11329   1.15891   1.16017
          Condensed to atoms (all electrons):
 Mulliken charges:
               1
     1  C   -0.074801
     2  C    0.000620
     3  C   -0.061612
     4  C   -0.089351
     5  C    0.089250
     6  C   -0.013003
     7  N   -0.286547
     8  C    0.017779
     9  C    0.128244
    10  C    0.039648
    11  C   -0.114892
    12  C   -0.105464
    13  C    0.027963
    14  N   -0.291734
    15  C   -0.015764
    16  C   -0.108196
    17  C   -0.102099
    18  C   -0.105209
    19  C   -0.021258
    20  C   -0.110580
    21  C   -0.066451
    22  C    0.319732
    23  O   -0.277056
    24  O   -0.255275
    25  C   -0.055809
    26  C   -0.078860
    27  C   -0.109503
    28  C    0.001748
    29  C   -0.078543
    30  C   -0.061332
    31  C   -0.089834
    32  C    0.093738
    33  C   -0.012895
    34  N   -0.278558
    35  C    0.015456
    36  C    0.134670
    37  C    0.039369
    38  C   -0.116279
    39  C   -0.105923
    40  C    0.040877
    41  N   -0.080744
    42  C   -0.003261
    43  C   -0.096627
    44  C   -0.099433
    45  C   -0.095737
    46  C   -0.004302
    47  C   -0.098861
    48  C   -0.059350
    49  C    0.324545
    50  O   -0.273436
    51  O   -0.255629
    52  C   -0.055680
    53  C   -0.078065
    54  O   -0.461683
    55  H    0.061787
    56  H    0.056164
    57  H    0.058502
    58  H    0.055713
    59  H    0.054637
    60  H    0.051206
    61  H    0.048863
    62  H    0.050448
    63  H    0.052188
    64  H    0.060080
    65  H    0.054557
    66  H    0.051510
    67  H    0.050182
    68  H    0.052296
    69  H    0.062238
    70  H    0.064606
    71  H    0.055221
    72  H    0.053172
    73  H    0.067753
    74  H    0.051800
    75  H    0.065256
    76  H    0.077546
    77  H    0.072567
    78  H    0.074733
    79  H    0.055500
    80  H    0.072175
    81  H    0.076449
    82  H    0.057184
    83  H    0.058066
    84  H    0.053375
    85  H    0.056559
    86  H    0.060036
    87  H    0.057298
    88  H    0.055297
    89  H    0.049208
    90  H    0.053012
    91  H    0.048823
    92  H    0.083873
    93  H    0.057519
    94  H    0.057006
    95  H    0.081593
    96  H    0.048326
    97  H    0.058287
    98  H    0.066185
    99  H    0.092475
   100  H    0.056404
   101  H    0.089386
   102  H    0.100988
   103  H    0.045126
   104  H    0.061578
   105  H    0.069936
   106  H    0.074076
   107  H    0.076490
   108  H    0.072030
   109  H    0.073491
   110  H    0.055223
 Sum of Mulliken charges =  -0.00000
 Mulliken charges with hydrogens summed into heavy atoms:
               1
     1  C   -0.013014
     2  C    0.000620
     3  C   -0.005448
     4  C   -0.030848
     5  C    0.089250
     6  C   -0.013003
     7  N   -0.286547
     8  C    0.017779
     9  C    0.128244
    10  C    0.095360
    11  C   -0.009049
    12  C   -0.006154
    13  C    0.027963
    14  N   -0.291734
    15  C    0.096504
    16  C   -0.002130
    17  C    0.000379
    18  C    0.021635
    19  C    0.087135
    20  C    0.008973
    21  C   -0.001195
    22  C    0.319732
    23  O   -0.277056
    24  O   -0.255275
    25  C    0.169037
    26  C    0.125264
    27  C    0.005747
    28  C    0.001748
    29  C   -0.025168
    30  C   -0.004773
    31  C   -0.029798
    32  C    0.093738
    33  C   -0.012895
    34  N   -0.278558
    35  C    0.015456
    36  C    0.134670
    37  C    0.096667
    38  C   -0.011774
    39  C   -0.004087
    40  C    0.040877
    41  N   -0.080744
    42  C    0.138131
    43  C    0.041973
    44  C    0.007181
    45  C    0.062923
    46  C    0.141488
    47  C    0.047253
    48  C    0.002228
    49  C    0.324545
    50  O   -0.273436
    51  O   -0.255629
    52  C    0.164822
    53  C    0.122679
    54  O   -0.461683
 Electronic spatial extent (au):  <R**2>=          37023.4577
 Charge=             -0.0000 electrons
 Dipole moment (field-independent basis, Debye):
    X=             -6.1363    Y=              1.6835    Z=             -0.6249  Tot=              6.3936
 Quadrupole moment (field-independent basis, Debye-Ang):
   XX=           -312.5418   YY=           -301.6713   ZZ=           -289.9807
   XY=             18.9599   XZ=             -0.0239   YZ=              8.7925
 Traceless Quadrupole moment (field-independent basis, Debye-Ang):
   XX=            -11.1438   YY=             -0.2734   ZZ=             11.4172
   XY=             18.9599   XZ=             -0.0239   YZ=              8.7925
 Octapole moment (field-independent basis, Debye-Ang**2):
  XXX=           -261.4698  YYY=              1.7705  ZZZ=             52.4800  XYY=            -43.8978
  XXY=            151.2101  XXZ=             10.9174  XZZ=             27.0815  YZZ=              1.6850
  YYZ=              7.5306  XYZ=              1.3378
 Hexadecapole moment (field-independent basis, Debye-Ang**3):
 XXXX=         -32023.7612 YYYY=          -9130.8171 ZZZZ=          -4518.7506 XXXY=            929.4423
 XXXZ=           -445.6537 YYYX=            -10.2441 YYYZ=             61.5703 ZZZX=           -292.8447
 ZZZY=            132.5484 XXYY=          -7219.5487 XXZZ=          -5897.9527 YYZZ=          -2349.6334
 XXYZ=            203.9374 YYXZ=             -2.0121 ZZXY=            -87.2148
 N-N= 8.169200760671D+03 E-N=-2.171465751519D+04  KE= 2.279099282121D+03
 ******************************Gaussian NBO Version 3.1******************************
             N A T U R A L   A T O M I C   O R B I T A L   A N D
          N A T U R A L   B O N D   O R B I T A L   A N A L Y S I S
 ******************************Gaussian NBO Version 3.1******************************
       /RESON  / : Allow strongly delocalized NBO set
       /NLMO   / : Form Natural Localized Molecular Orbitals
       /NMR /    : Analyze NMR Sheilding Tensor 

 Analyzing the SCF density

 Job title: Pleiokomenine_C_2                                               

 Storage needed:    355564 in NPA,    438187 in NBO,   2133784 in NLMO ( 104796000 available)
 GSVD:  LWork=     -108884 too small for GESVD, short by      536270 words or      536270 for optimal perf.


 NATURAL POPULATIONS:  Natural atomic orbital occupancies 
                                                          
   NAO  Atom  No  lang   Type(AO)    Occupancy      Energy
 ----------------------------------------------------------
     1    C    1  S      Cor( 1S)     1.99993     -10.94448
     2    C    1  S      Val( 2S)     1.07813      -0.17538
     3    C    1  px     Val( 2p)     0.98603       0.11538
     4    C    1  py     Val( 2p)     0.98172       0.15850
     5    C    1  pz     Val( 2p)     1.01082       0.04801
 
     6    C    2  S      Cor( 1S)     1.99990     -10.95573
     7    C    2  S      Val( 2S)     1.07778      -0.18251
     8    C    2  px     Val( 2p)     0.95165       0.13220
     9    C    2  py     Val( 2p)     0.95966       0.17748
    10    C    2  pz     Val( 2p)     0.99632       0.05881
 
    11    C    3  S      Cor( 1S)     1.99994     -10.94744
    12    C    3  S      Val( 2S)     1.08388      -0.18194
    13    C    3  px     Val( 2p)     0.97899       0.12188
    14    C    3  py     Val( 2p)     0.97504       0.15859
    15    C    3  pz     Val( 2p)     0.99547       0.05424
 
    16    C    4  S      Cor( 1S)     1.99993     -10.94087
    17    C    4  S      Val( 2S)     1.07202      -0.17319
    18    C    4  px     Val( 2p)     1.00594       0.10908
    19    C    4  py     Val( 2p)     0.97283       0.16289
    20    C    4  pz     Val( 2p)     1.03532       0.04275
 
    21    C    5  S      Cor( 1S)     1.99985     -10.98779
    22    C    5  S      Val( 2S)     1.05879      -0.18380
    23    C    5  px     Val( 2p)     0.91282       0.12443
    24    C    5  py     Val( 2p)     0.97687       0.15877
    25    C    5  pz     Val( 2p)     0.93955       0.05884
 
    26    C    6  S      Cor( 1S)     1.99990     -10.94629
    27    C    6  S      Val( 2S)     1.08262      -0.18706
    28    C    6  px     Val( 2p)     0.98890       0.12669
    29    C    6  py     Val( 2p)     0.95010       0.14981
    30    C    6  pz     Val( 2p)     1.00280       0.06578
 
    31    N    7  S      Cor( 1S)     1.99998     -15.27008
    32    N    7  S      Val( 2S)     1.40372      -0.59517
    33    N    7  px     Val( 2p)     1.11452       0.00241
    34    N    7  py     Val( 2p)     1.06632       0.01456
    35    N    7  pz     Val( 2p)     1.69036      -0.23077
 
    36    C    8  S      Cor( 1S)     1.99996     -11.00875
    37    C    8  S      Val( 2S)     1.10891      -0.23400
    38    C    8  px     Val( 2p)     0.94329       0.09691
    39    C    8  py     Val( 2p)     0.95819       0.11258
    40    C    8  pz     Val( 2p)     0.97030       0.07949
 
    41    C    9  S      Cor( 1S)     1.99996     -11.05243
    42    C    9  S      Val( 2S)     1.11134      -0.25793
    43    C    9  px     Val( 2p)     0.95269       0.07987
    44    C    9  py     Val( 2p)     0.83823       0.12384
    45    C    9  pz     Val( 2p)     0.92618       0.08294
 
    46    C   10  S      Cor( 1S)     1.99993     -11.02116
    47    C   10  S      Val( 2S)     1.09737      -0.22349
    48    C   10  px     Val( 2p)     0.90463       0.11391
    49    C   10  py     Val( 2p)     0.93654       0.08094
    50    C   10  pz     Val( 2p)     0.98811       0.08355
 
    51    C   11  S      Cor( 1S)     1.99994     -10.98327
    52    C   11  S      Val( 2S)     1.10374      -0.21757
    53    C   11  px     Val( 2p)     1.01203       0.07857
    54    C   11  py     Val( 2p)     0.98654       0.08481
    55    C   11  pz     Val( 2p)     0.98291       0.08021
 
    56    C   12  S      Cor( 1S)     1.99996     -10.98164
    57    C   12  S      Val( 2S)     1.09163      -0.20400
    58    C   12  px     Val( 2p)     1.00806       0.08313
    59    C   12  py     Val( 2p)     0.97618       0.08528
    60    C   12  pz     Val( 2p)     0.99763       0.08702
 
    61    C   13  S      Cor( 1S)     1.99998     -11.00834
    62    C   13  S      Val( 2S)     1.10501      -0.23201
    63    C   13  px     Val( 2p)     0.94820       0.10160
    64    C   13  py     Val( 2p)     0.94977       0.10571
    65    C   13  pz     Val( 2p)     0.94669       0.09966
 
    66    N   14  S      Cor( 1S)     1.99999     -15.24451
    67    N   14  S      Val( 2S)     1.42899      -0.58926
    68    N   14  px     Val( 2p)     1.54506      -0.15829
    69    N   14  py     Val( 2p)     1.17132      -0.00541
    70    N   14  pz     Val( 2p)     1.13419       0.00706
 
    71    C   15  S      Cor( 1S)     1.99994     -11.01405
    72    C   15  S      Val( 2S)     1.06979      -0.19621
    73    C   15  px     Val( 2p)     0.98728       0.07942
    74    C   15  py     Val( 2p)     0.88799       0.11593
    75    C   15  pz     Val( 2p)     1.01704       0.06787
 
    76    C   16  S      Cor( 1S)     1.99997     -10.98163
    77    C   16  S      Val( 2S)     1.08106      -0.19502
    78    C   16  px     Val( 2p)     0.98199       0.08753
    79    C   16  py     Val( 2p)     0.99841       0.08450
    80    C   16  pz     Val( 2p)     1.01317       0.08519
 
    81    C   17  S      Cor( 1S)     1.99996     -10.98385
    82    C   17  S      Val( 2S)     1.08585      -0.19930
    83    C   17  px     Val( 2p)     1.00103       0.08485
    84    C   17  py     Val( 2p)     0.98040       0.08701
    85    C   17  pz     Val( 2p)     1.00121       0.08525
 
    86    C   18  S      Cor( 1S)     1.99995     -10.97862
    87    C   18  S      Val( 2S)     1.09221      -0.19918
    88    C   18  px     Val( 2p)     1.00937       0.08236
    89    C   18  py     Val( 2p)     0.97948       0.08679
    90    C   18  pz     Val( 2p)     0.99413       0.09535
 
    91    C   19  S      Cor( 1S)     1.99994     -11.00382
    92    C   19  S      Val( 2S)     1.07203      -0.18875
    93    C   19  px     Val( 2p)     1.02406       0.07815
    94    C   19  py     Val( 2p)     0.99078       0.07858
    95    C   19  pz     Val( 2p)     0.88111       0.12021
 
    96    C   20  S      Cor( 1S)     1.99992     -10.98769
    97    C   20  S      Val( 2S)     1.09982      -0.21562
    98    C   20  px     Val( 2p)     1.01855       0.07286
    99    C   20  py     Val( 2p)     0.96576       0.08957
   100    C   20  pz     Val( 2p)     0.98972       0.07849
 
   101    C   21  S      Cor( 1S)     1.99994     -11.01117
   102    C   21  S      Val( 2S)     1.11088      -0.24184
   103    C   21  px     Val( 2p)     1.01458       0.06290
   104    C   21  py     Val( 2p)     0.99082       0.06617
   105    C   21  pz     Val( 2p)     0.96811       0.07624
 
   106    C   22  S      Cor( 1S)     1.99991     -11.11451
   107    C   22  S      Val( 2S)     1.05470      -0.26332
   108    C   22  px     Val( 2p)     0.84131       0.04004
   109    C   22  py     Val( 2p)     0.79486       0.13042
   110    C   22  pz     Val( 2p)     0.90625       0.09730
 
   111    O   23  S      Cor( 1S)     1.99999     -20.10088
   112    O   23  S      Val( 2S)     1.80818      -1.06068
   113    O   23  px     Val( 2p)     1.31544      -0.14026
   114    O   23  py     Val( 2p)     1.45087      -0.17276
   115    O   23  pz     Val( 2p)     1.73674      -0.27536
 
   116    O   24  S      Cor( 1S)     1.99999     -20.21775
   117    O   24  S      Val( 2S)     1.73002      -1.03025
   118    O   24  px     Val( 2p)     1.73697      -0.32950
   119    O   24  py     Val( 2p)     1.55051      -0.24669
   120    O   24  pz     Val( 2p)     1.24935      -0.11528
 
   121    C   25  S      Cor( 1S)     1.99984     -11.04764
   122    C   25  S      Val( 2S)     1.07707      -0.22935
   123    C   25  px     Val( 2p)     1.03770       0.03767
   124    C   25  py     Val( 2p)     1.04225       0.03319
   125    C   25  pz     Val( 2p)     0.80853       0.08612
 
   126    C   26  S      Cor( 1S)     1.99992     -11.01723
   127    C   26  S      Val( 2S)     1.06528      -0.19761
   128    C   26  px     Val( 2p)     0.92936       0.08436
   129    C   26  py     Val( 2p)     0.98896       0.06515
   130    C   26  pz     Val( 2p)     1.03270       0.05952
 
   131    C   27  S      Cor( 1S)     1.99996     -10.98267
   132    C   27  S      Val( 2S)     1.08245      -0.18747
   133    C   27  px     Val( 2p)     0.98044       0.09641
   134    C   27  py     Val( 2p)     1.02765       0.08478
   135    C   27  pz     Val( 2p)     0.99565       0.09259
 
   136    C   28  S      Cor( 1S)     1.99990     -10.95567
   137    C   28  S      Val( 2S)     1.07781      -0.18274
   138    C   28  px     Val( 2p)     0.95703       0.11992
   139    C   28  py     Val( 2p)     0.96002       0.17296
   140    C   28  pz     Val( 2p)     0.98934       0.07669
 
   141    C   29  S      Cor( 1S)     1.99992     -10.94625
   142    C   29  S      Val( 2S)     1.07660      -0.17721
   143    C   29  px     Val( 2p)     1.00216       0.09311
   144    C   29  py     Val( 2p)     0.98104       0.14852
   145    C   29  pz     Val( 2p)     1.00306       0.07007
 
   146    C   30  S      Cor( 1S)     1.99994     -10.94697
   147    C   30  S      Val( 2S)     1.08373      -0.18133
   148    C   30  px     Val( 2p)     0.98298       0.10728
   149    C   30  py     Val( 2p)     0.97721       0.15376
   150    C   30  pz     Val( 2p)     0.98909       0.07552
 
   151    C   31  S      Cor( 1S)     1.99993     -10.94018
   152    C   31  S      Val( 2S)     1.07187      -0.17213
   153    C   31  px     Val( 2p)     1.00979       0.09456
   154    C   31  py     Val( 2p)     0.97755       0.15807
   155    C   31  pz     Val( 2p)     1.02861       0.06327
 
   156    C   32  S      Cor( 1S)     1.99985     -10.98853
   157    C   32  S      Val( 2S)     1.06122      -0.18566
   158    C   32  px     Val( 2p)     0.90151       0.11190
   159    C   32  py     Val( 2p)     0.97579       0.15621
   160    C   32  pz     Val( 2p)     0.94378       0.07902
 
   161    C   33  S      Cor( 1S)     1.99990     -10.94958
   162    C   33  S      Val( 2S)     1.08550      -0.19314
   163    C   33  px     Val( 2p)     0.98358       0.11580
   164    C   33  py     Val( 2p)     0.95300       0.13966
   165    C   33  pz     Val( 2p)     0.99935       0.07987
 
   166    N   34  S      Cor( 1S)     1.99998     -15.26639
   167    N   34  S      Val( 2S)     1.40184      -0.58843
   168    N   34  px     Val( 2p)     1.53990      -0.16118
   169    N   34  py     Val( 2p)     1.06433       0.02009
   170    N   34  pz     Val( 2p)     1.26260      -0.05256
 
   171    C   35  S      Cor( 1S)     1.99996     -11.01163
   172    C   35  S      Val( 2S)     1.10317      -0.23460
   173    C   35  px     Val( 2p)     0.98847       0.06027
   174    C   35  py     Val( 2p)     0.94763       0.11617
   175    C   35  pz     Val( 2p)     0.95001       0.10071
 
   176    C   36  S      Cor( 1S)     1.99996     -11.04884
   177    C   36  S      Val( 2S)     1.11636      -0.25626
   178    C   36  px     Val( 2p)     0.93032       0.08301
   179    C   36  py     Val( 2p)     0.83510       0.13430
   180    C   36  pz     Val( 2p)     0.93892       0.09253
 
   181    C   37  S      Cor( 1S)     1.99991     -11.03074
   182    C   37  S      Val( 2S)     1.10963      -0.24791
   183    C   37  px     Val( 2p)     0.95725       0.07745
   184    C   37  py     Val( 2p)     0.92343       0.07708
   185    C   37  pz     Val( 2p)     0.94142       0.07167
 
   186    C   38  S      Cor( 1S)     1.99993     -10.97688
   187    C   38  S      Val( 2S)     1.10943      -0.21620
   188    C   38  px     Val( 2p)     0.98496       0.08852
   189    C   38  py     Val( 2p)     0.98811       0.09125
   190    C   38  pz     Val( 2p)     1.00207       0.08229
 
   191    C   39  S      Cor( 1S)     1.99996     -10.97718
   192    C   39  S      Val( 2S)     1.09073      -0.19846
   193    C   39  px     Val( 2p)     0.99340       0.09256
   194    C   39  py     Val( 2p)     0.98054       0.08798
   195    C   39  pz     Val( 2p)     1.01085       0.08602
 
   196    C   40  S      Cor( 1S)     1.99998     -11.01054
   197    C   40  S      Val( 2S)     1.09918      -0.22484
   198    C   40  px     Val( 2p)     0.96292       0.09980
   199    C   40  py     Val( 2p)     0.94491       0.10683
   200    C   40  pz     Val( 2p)     0.93291       0.11037
 
   201    N   41  S      Cor( 1S)     1.99999     -15.41578
   202    N   41  S      Val( 2S)     1.39133      -0.65483
   203    N   41  px     Val( 2p)     1.24598      -0.12056
   204    N   41  py     Val( 2p)     1.14631      -0.09413
   205    N   41  pz     Val( 2p)     1.18243      -0.11891
 
   206    C   42  S      Cor( 1S)     1.99992     -11.03594
   207    C   42  S      Val( 2S)     1.09115      -0.23274
   208    C   42  px     Val( 2p)     0.94835       0.07761
   209    C   42  py     Val( 2p)     0.90253       0.07391
   210    C   42  pz     Val( 2p)     1.00802       0.05173
 
   211    C   43  S      Cor( 1S)     1.99995     -10.98922
   212    C   43  S      Val( 2S)     1.08707      -0.20292
   213    C   43  px     Val( 2p)     1.03726       0.07738
   214    C   43  py     Val( 2p)     0.99069       0.08347
   215    C   43  pz     Val( 2p)     0.94792       0.09891
 
   216    C   44  S      Cor( 1S)     1.99994     -10.98473
   217    C   44  S      Val( 2S)     1.09163      -0.20274
   218    C   44  px     Val( 2p)     1.00245       0.08643
   219    C   44  py     Val( 2p)     0.97608       0.09246
   220    C   44  pz     Val( 2p)     0.99270       0.08816
 
   221    C   45  S      Cor( 1S)     1.99993     -10.98685
   222    C   45  S      Val( 2S)     1.09793      -0.20855
   223    C   45  px     Val( 2p)     1.02067       0.08135
   224    C   45  py     Val( 2p)     0.98318       0.08644
   225    C   45  pz     Val( 2p)     0.96256       0.08850
 
   226    C   46  S      Cor( 1S)     1.99993     -11.03196
   227    C   46  S      Val( 2S)     1.09441      -0.23320
   228    C   46  px     Val( 2p)     1.01423       0.06063
   229    C   46  py     Val( 2p)     0.93165       0.06022
   230    C   46  pz     Val( 2p)     0.91353       0.08152
 
   231    C   47  S      Cor( 1S)     1.99991     -10.97181
   232    C   47  S      Val( 2S)     1.10367      -0.19989
   233    C   47  px     Val( 2p)     0.97324       0.10267
   234    C   47  py     Val( 2p)     0.97620       0.10606
   235    C   47  pz     Val( 2p)     1.00778       0.09921
 
   236    C   48  S      Cor( 1S)     1.99994     -11.00095
[...]
  103       1.2743        1.2383       0.0360        -0.5435       1.8178
  104      26.2523        0.9062      25.3461         0.5541      25.6981
  105       0.2223       -1.2004       1.4227        -0.4342       0.6565
 Sum       31.1917       -1.0305      32.2222        -0.1980      31.3897

 Contributions to Isotropic shielding for atom   94 (    32.2514 ppm):
                         Standard Origin              Atomic Origin
 NLMO      Total    Paramagnetic  Diamagnetic   Paramagnetic  Diamagnetic
  102       1.1987        0.9509       0.2478         0.2328       0.9659
  105       1.6124       -0.2123       1.8247         0.5068       1.1055
  106      26.2748        0.0527      26.2220         0.4361      25.8387
  107       1.8117        3.7047      -1.8930        -0.0315       1.8432
  108       0.0199        0.5949      -0.5750        -1.1109       1.1309
 Sum       30.9174        5.0909      25.8265         0.0332      30.8842

 Contributions to Isotropic shielding for atom   95 (    31.0543 ppm):
                         Standard Origin              Atomic Origin
 NLMO      Total    Paramagnetic  Diamagnetic   Paramagnetic  Diamagnetic
   98      -0.1407        0.5762      -0.7169        -1.0404       0.8997
   99      -0.4160        0.1203      -0.5363        -1.2828       0.8668
  102       0.8020        2.1930      -1.3910        -0.0950       0.8970
  105       1.0131        1.3520      -0.3389        -0.1607       1.1738
  106       1.9590        3.3002      -1.3412         0.1266       1.8324
  107      25.8063       -0.3535      26.1598         0.5913      25.2149
  109       0.1010        1.0628      -0.9618        -0.9096       1.0106
  116      -0.1999       -1.3399       1.1400        -0.5608       0.3609
 Sum       28.9248        6.9111      22.0137        -3.3315      32.2563

 Contributions to Isotropic shielding for atom   96 (    32.5133 ppm):
                         Standard Origin              Atomic Origin
 NLMO      Total    Paramagnetic  Diamagnetic   Paramagnetic  Diamagnetic
   94      -0.0497       -0.6584       0.6087        -1.0043       0.9546
   97       2.0337       -1.6102       3.6440         1.0771       0.9566
  102       0.2919       -1.3022       1.5941        -0.2352       0.5271
  105       1.1989       -0.1598       1.3587         0.0540       1.1449
  106      -0.0194       -1.6672       1.6478        -1.0456       1.0262
  108      26.2934        0.5515      25.7419         0.2525      26.0409
  109       1.8392        0.8802       0.9590        -0.0046       1.8438
 Sum       31.5881       -3.9661      35.5542        -0.9062      32.4943

 Contributions to Isotropic shielding for atom   97 (    32.1057 ppm):
                         Standard Origin              Atomic Origin
 NLMO      Total    Paramagnetic  Diamagnetic   Paramagnetic  Diamagnetic
   97       1.0528        0.9442       0.1085         0.0808       0.9719
   98      -0.1985        0.7968      -0.9953        -1.1924       0.9939
  105       0.5008        2.8827      -2.3819        -0.5759       1.0768
  107       0.1612       -0.7188       0.8800        -0.9542       1.1154
  108       2.3540        0.1888       2.1652         0.6276       1.7264
  109      26.3086       -0.0636      26.3722         0.5558      25.7528
 Sum       30.1789        4.0302      26.1487        -1.4583      31.6372

 Contributions to Isotropic shielding for atom   98 (    32.3341 ppm):
                         Standard Origin              Atomic Origin
 NLMO      Total    Paramagnetic  Diamagnetic   Paramagnetic  Diamagnetic
   71      -1.0975        0.2856      -1.3831        -2.1057       1.0082
   80      -0.0441        1.2249      -1.2690        -1.1324       1.0884
   85       1.8256       -1.3977       3.2233         1.1978       0.6278
   89      -0.0876        0.0995      -0.1871        -1.0273       0.9398
  111      26.1394        0.1252      26.0142         0.6367      25.5027
  112       1.7136        3.2224      -1.5087        -0.1978       1.9114
  122       0.5778       -0.4641       1.0419         0.0918       0.4859
  125       0.0332       -1.0770       1.1103        -0.5852       0.6185
  126       0.0789       -0.9261       1.0050        -0.5059       0.5848
 Sum       29.1393        1.0927      28.0466        -3.6280      32.7674

 Contributions to Isotropic shielding for atom   99 (    30.5195 ppm):
                         Standard Origin              Atomic Origin
 NLMO      Total    Paramagnetic  Diamagnetic   Paramagnetic  Diamagnetic
   83      -0.3675        1.1898      -1.5573        -0.7619       0.3944
   85       1.0387       -0.0187       1.0574         0.2294       0.8092
   87      -0.2407        0.1102      -0.3509        -1.0915       0.8507
   89      -0.1981       -0.1248      -0.0733        -1.0778       0.8797
  100      -0.1839       -0.1647      -0.0192        -1.0407       0.8568
  110       0.6198        1.9375      -1.3176        -0.1037       0.7236
  111       1.5905        2.9123      -1.3218        -0.3195       1.9100
  112      25.6765       -0.1403      25.8168         0.6978      24.9787
  118       0.3086       -0.9675       1.2761        -0.5083       0.8169
  122       1.1428       -1.0159       2.1588         0.1128       1.0300
  125       0.1769       -1.3144       1.4913        -0.5279       0.7048
  126       0.1981       -2.3567       2.5548        -0.6194       0.8175
  193      -0.5445        0.9253      -1.4698         0.5615      -1.1060
  194      -0.7773       -1.1401       0.3628        -0.7492      -0.0280
  195       0.0281        0.0771      -0.0490         1.0648      -1.0367
 Sum       28.4679       -0.0911      28.5590        -4.1337      32.6016

 Contributions to Isotropic shielding for atom  100 (    31.3743 ppm):
                         Standard Origin              Atomic Origin
 NLMO      Total    Paramagnetic  Diamagnetic   Paramagnetic  Diamagnetic
   71      -0.1534       -0.1297      -0.0237        -1.3016       1.1482
   84      -0.2209        0.3828      -0.6037        -1.0423       0.8215
   85       0.3256       -0.7664       1.0919        -0.4668       0.7924
  100       1.8242       -1.7504       3.5746         1.3663       0.4579
  110       1.2794       -1.3727       2.6521         0.4519       0.8275
  113      26.3105        0.9264      25.3841         0.6125      25.6980
  114       1.1682        1.4147      -0.2465        -0.6722       1.8404
 Sum       30.5335       -1.2954      31.8289        -1.0523      31.5858

 Contributions to Isotropic shielding for atom  101 (    30.7762 ppm):
                         Standard Origin              Atomic Origin
 NLMO      Total    Paramagnetic  Diamagnetic   Paramagnetic  Diamagnetic
  100      -0.3852        1.1813      -1.5665        -1.1558       0.7707
  101      -0.0660        0.5309      -0.5969        -1.0839       1.0179
  110       0.3745        1.8968      -1.5222        -0.6087       0.9833
  112       0.1030        0.2517      -0.1487        -0.9241       1.0271
  113       1.7315        0.0602       1.6712         0.0407       1.6907
  114      25.9815        0.3676      25.6139         1.1054      24.8761
  195       0.3087       -0.9144       1.2231         1.1385      -0.8299
 Sum       28.0480        3.3740      24.6739        -1.4879      29.5358

 Contributions to Isotropic shielding for atom  102 (    30.0451 ppm):
                         Standard Origin              Atomic Origin
 NLMO      Total    Paramagnetic  Diamagnetic   Paramagnetic  Diamagnetic
   87       0.3619       -0.8150       1.1769         0.2396       0.1222
   89      -0.3718        0.0889      -0.4607        -1.2611       0.8893
   97      -0.2640        1.3754      -1.6394        -1.0723       0.8083
   98       1.5411       -0.4699       2.0110         0.6446       0.8965
  107      -0.1978       -1.1720       0.9741        -0.7629       0.5650
  115       0.1627        2.4641      -2.3013        -0.7247       0.8875
  116      25.3591       -0.1909      25.5499         0.7144      24.6446
  117       1.5856        2.9600      -1.3744        -0.3309       1.9164
  118      -0.0737        0.0091      -0.0828        -1.2275       1.1538
  120       0.4657       -1.7139       2.1797        -0.4222       0.8880
  121       0.6357       -2.3111       2.9467        -0.9349       1.5706
  191      -0.6740        1.0984      -1.7724         0.1690      -0.8430
  195      -0.3128        0.7003      -1.0131         0.6587      -0.9715
 Sum       28.2177        2.0234      26.1943        -4.3101      32.5277

 Contributions to Isotropic shielding for atom  103 (    31.7729 ppm):
                         Standard Origin              Atomic Origin
 NLMO      Total    Paramagnetic  Diamagnetic   Paramagnetic  Diamagnetic
   86      -0.1065        0.3548      -0.4613        -1.0168       0.9103
   87       0.4301       -0.9402       1.3703         0.1262       0.3039
   94      -0.2458        1.1466      -1.3924        -1.2006       0.9548
   97      -0.1186        1.0571      -1.1757        -0.7384       0.6199
   98       1.8950       -1.0833       2.9784         0.9085       0.9865
  115       0.6717        1.8835      -1.2118        -0.4221       1.0938
  116       1.6808        2.9307      -1.2499        -0.3574       2.0383
  117      26.6341       -0.1577      26.7918         0.5481      26.0860
  119      -0.1753       -0.9571       0.7818        -1.2975       1.1222
  120       0.1499       -0.9342       1.0842        -0.6267       0.7767
  121       0.3536       -1.1428       1.4963        -0.8512       1.2048
 Sum       31.1691        2.1574      29.0117        -4.9280      36.0971

 Contributions to Isotropic shielding for atom  104 (    31.4268 ppm):
                         Standard Origin              Atomic Origin
 NLMO      Total    Paramagnetic  Diamagnetic   Paramagnetic  Diamagnetic
   81      -0.5395        1.2513      -1.7908        -1.2377       0.6982
   86      -0.2652        1.2509      -1.5161        -1.4098       1.1446
   87       1.8426       -0.4195       2.2621         0.8470       0.9956
   98       0.2683       -0.7875       1.0557         0.1564       0.1119
  115       1.5144        1.0669       0.4475         0.2802       1.2342
  117      -0.2424        0.1463      -0.3887        -1.3917       1.1493
  118       0.3380        4.8215      -4.4835        -0.8352       1.1732
  119      25.9851       -0.5993      26.5844         0.2622      25.7230
  121       0.3303       -0.8435       1.1738        -0.6509       0.9812
  122       0.5982       -1.3994       1.9976        -0.4717       1.0698
  124       0.1437       -0.9111       1.0548        -0.5226       0.6663
  127      -0.2609       -2.3185       2.0576        -0.7480       0.4871
 Sum       29.7127        1.2583      28.4544        -5.7219      35.4346

 Contributions to Isotropic shielding for atom  105 (    30.5612 ppm):
                         Standard Origin              Atomic Origin
 NLMO      Total    Paramagnetic  Diamagnetic   Paramagnetic  Diamagnetic
  120      -0.9747        0.5924      -1.5671        -1.9133       0.9386
  121      -0.4958        1.6479      -2.1437        -2.0053       1.5094
  122      -2.1965        1.6624      -3.8590        -2.9594       0.7628
  123       1.3808        0.0918       1.2889        -0.1046       1.4854
  124      26.6098        0.6497      25.9601         1.3085      25.3012
  125       1.3011        3.8592      -2.5581        -0.7299       2.0309
  126       1.1052        2.4228      -1.3176        -0.7651       1.8704
  191       0.4679       -1.4077       1.8756         1.2310      -0.7632
  192       0.8334        0.7887       0.0446         1.0852      -0.2518
  193       1.4955       -1.5026       2.9981         1.5594      -0.0639
  194       0.3305        1.2903      -0.9598        -0.1272       0.4578
 Sum       29.8570       10.0949      19.7621        -3.4206      33.2776

 Contributions to Isotropic shielding for atom  106 (    30.6013 ppm):
                         Standard Origin              Atomic Origin
 NLMO      Total    Paramagnetic  Diamagnetic   Paramagnetic  Diamagnetic
  120      -0.5701        0.2628      -0.8329        -1.2174       0.6473
  121      -0.0770        0.8302      -0.9072        -1.1169       1.0399
  122      -0.7240        0.5045      -1.2285        -0.7609       0.0369
  123       1.6790       -1.6745       3.3535        -0.4150       2.0940
  124       0.6153        3.1911      -2.5758        -1.3651       1.9804
  125      26.0087        0.4310      25.5778         0.7171      25.2916
  126       1.1335        1.2448      -0.1113        -0.8624       1.9959
  193       0.9402       -0.5380       1.4782         1.4240      -0.4839
 Sum       29.0056        4.2520      24.7536        -3.5966      32.6023

 Contributions to Isotropic shielding for atom  107 (    30.4690 ppm):
                         Standard Origin              Atomic Origin
 NLMO      Total    Paramagnetic  Diamagnetic   Paramagnetic  Diamagnetic
  120      -0.9250        0.5292      -1.4543        -1.8260       0.9010
  121      -0.2012        1.0332      -1.2345        -1.7730       1.5718
  122      -1.7775        1.7581      -3.5356        -2.6128       0.8354
  123       2.4281       -3.6466       6.0747         1.0100       1.4181
  124       0.8946        2.8359      -1.9413        -0.9731       1.8677
  125       1.5353        1.9074      -0.3721        -0.4981       2.0334
  126      26.2565        0.8940      25.3625         1.1179      25.1386
  191       0.2721       -0.9966       1.2687         1.0267      -0.7546
  193       0.9935       -0.5880       1.5815         1.0424      -0.0489
 Sum       29.4764        3.7266      25.7498        -3.4862      32.9626

 Contributions to Isotropic shielding for atom  108 (    31.3212 ppm):
                         Standard Origin              Atomic Origin
 NLMO      Total    Paramagnetic  Diamagnetic   Paramagnetic  Diamagnetic
   76      -0.4399       -0.0473      -0.3926        -1.2828       0.8429
   81      -0.4097        0.8472      -1.2569        -1.1473       0.7377
   82       1.1841        0.1141       1.0700        -0.0369       1.2210
   87      -0.2210        0.9397      -1.1608        -1.1252       0.9042
  122       0.5992       -0.5091       1.1083        -0.2750       0.8742
  127      26.0672        0.1799      25.8874         0.6360      25.4312
  128       1.5118        3.8316      -2.3198        -0.4760       1.9878
  129       1.7612        0.5306       1.2306        -0.0531       1.8143
 Sum       30.0529        5.8867      24.1662        -3.7604      33.8133

 Contributions to Isotropic shielding for atom  109 (    30.7348 ppm):
                         Standard Origin              Atomic Origin
 NLMO      Total    Paramagnetic  Diamagnetic   Paramagnetic  Diamagnetic
   75      -0.5446        0.5983      -1.1429        -1.2580       0.7134
   76      -0.8164        0.1993      -1.0157        -2.1710       1.3546
   79      -0.4473        0.6870      -1.1343        -1.0822       0.6350
   82       1.1490        0.4942       0.6548        -0.0774       1.2264
  127       1.5519        3.7937      -2.2418        -0.4177       1.9696
  128      26.0246        0.1144      25.9103         0.6890      25.3357
  129       1.7403        0.8653       0.8750        -0.0608       1.8011
 Sum       28.6575        6.7521      21.9054        -4.3782      33.0358

 Contributions to Isotropic shielding for atom  110 (    31.9973 ppm):
                         Standard Origin              Atomic Origin
 NLMO      Total    Paramagnetic  Diamagnetic   Paramagnetic  Diamagnetic
   76      -0.6056       -0.2177      -0.3879        -1.7926       1.1870
   82       1.9932       -3.1008       5.0940         1.2233       0.7699
   86      -0.1927        0.6079      -0.8006        -1.2678       1.0751
   92      -0.0433        1.0116      -1.0549        -0.8936       0.8504
  127       1.8521        1.3932       0.4589        -0.0500       1.9021
  128       1.8304        1.8658      -0.0354        -0.0676       1.8979
  129      26.4152        0.8249      25.5903         0.7007      25.7145
 Sum       31.2493        2.3849      28.8644        -2.1475      33.3969
 
 1\1\GINC-PCSN02\SP\RHF\STO-3G\C45H56N4O5\ABENIDD\30-May-2024\0\\# nmr=
 giao hf/sto-3g pop=nbo geom=connectivity\\Pleiokomenine_C_2\\0,1\C,0,0
 .,0.,0.\C,0,1.4014,0.,0.\C,0,2.0885,1.2315,0.\C,0,1.3974,2.4523,-0.011
 \C,0,0.0135,2.4414,-0.0125\C,0,-0.6673,1.2139,0.0201\N,0,-0.8764,3.547
 6,-0.0387\C,0,-2.1431,1.4806,0.1708\C,0,-2.1556,2.9241,-0.4668\C,0,-3.
 1716,0.5949,-0.5459\C,0,-2.1664,2.7826,-2.0506\C,0,-3.4259,2.0515,-2.5
 352\C,0,-4.1913,1.5036,-1.3139\N,0,-3.7288,-0.2604,0.5085\C,0,-4.968,-
 0.9398,0.1554\C,0,-6.0107,-0.0726,-0.5496\C,0,-5.4068,0.6692,-1.7422\C
 ,0,-2.4606,1.3017,1.6762\C,0,-3.7623,0.5146,1.7409\C,0,-4.6459,2.7692,
 -0.5091\C,0,-3.4499,3.6922,-0.1465\C,0,-3.5758,4.2749,1.2501\O,0,-4.32
 04,3.8495,2.1247\O,0,-2.8015,5.3885,1.3789\C,0,-2.8365,5.9788,2.678\C,
 0,-0.3851,4.7685,-0.6583\C,0,2.1609,-1.3082,0.0651\C,0,2.1126,-1.9489,
 1.4364\C,0,0.9994,-2.714,1.8126\C,0,3.1571,-1.7404,2.3626\C,0,3.0973,-
 2.2647,3.6614\C,0,1.9723,-2.9727,4.0416\C,0,0.9398,-3.2032,3.1061\N,0,
 1.6436,-3.4923,5.3258\C,0,-0.1074,-4.0663,3.7733\C,0,0.1625,-3.5707,5.
 2363\C,0,-1.5942,-3.9003,3.5059\C,0,-0.4046,-2.0644,5.4024\C,0,-1.8669
 ,-1.9491,4.9651\C,0,-2.4158,-3.3569,4.6841\N,0,-2.0949,-5.2721,3.0864\
 C,0,-3.4195,-5.0914,2.4234\C,0,-4.4088,-4.5326,3.4661\C,0,-3.8975,-3.2
 938,4.2373\C,0,0.2061,-5.4941,3.2442\C,0,-0.96,-5.781,2.279\C,0,-2.167
 7,-4.1582,6.0093\C,0,-0.635,-4.3444,6.3116\C,0,-0.2943,-5.7924,6.6255\
 O,0,-1.0435,-6.5436,7.2427\O,0,0.9869,-6.1084,6.3051\C,0,1.3592,-7.448
 4,6.623\C,0,2.3025,-2.9171,6.4839\O,0,-2.259,-6.1761,4.1037\H,0,-0.565
 1,-0.9253,0.0323\H,0,3.1762,1.247,0.0208\H,0,1.9535,3.3826,-0.0042\H,0
 ,-2.6788,-0.069,-1.2692\H,0,-1.2814,2.2473,-2.4168\H,0,-2.1245,3.7707,
 -2.5266\H,0,-4.0579,2.7377,-3.1131\H,0,-3.1417,1.2445,-3.2219\H,0,-4.7
 085,-1.7703,-0.514\H,0,-5.4119,-1.4099,1.0415\H,0,-6.8311,-0.7096,-0.9
 009\H,0,-6.4524,0.6357,0.1596\H,0,-5.1061,-0.0659,-2.5\H,0,-6.17,1.303
 8,-2.2081\H,0,-1.6917,0.6932,2.1748\H,0,-2.4952,2.2306,2.2442\H,0,-3.7
 776,-0.1369,2.6205\H,0,-4.6278,1.1747,1.8123\H,0,-5.2323,2.493,0.3673\
 H,0,-5.3439,3.3524,-1.1271\H,0,-3.5231,4.5682,-0.8093\H,0,-2.1434,6.82
 45,2.6843\H,0,-3.841,6.3518,2.9005\H,0,-2.5115,5.26,3.4369\H,0,0.0323,
 4.5844,-1.6547\H,0,0.3876,5.2302,-0.0342\H,0,-1.1906,5.5017,-0.7632\H,
 0,1.7504,-2.0021,-0.6806\H,0,3.2054,-1.1547,-0.2356\H,0,0.1979,-2.9066
 ,1.1085\H,0,4.0238,-1.1472,2.078\H,0,3.9097,-2.0801,4.3544\H,0,-1.7348
 ,-3.2602,2.622\H,0,0.181,-1.3183,4.8515\H,0,-0.3178,-1.7569,6.4538\H,0
 ,-2.452,-1.4403,5.7409\H,0,-1.9315,-1.32,4.0682\H,0,-3.7319,-6.0753,2.
 0581\H,0,-3.2812,-4.4122,1.5758\H,0,-5.3547,-4.2862,2.9701\H,0,-4.6434
 ,-5.3166,4.1969\H,0,-4.0263,-2.4318,3.5692\H,0,-4.5471,-3.1072,5.1009\
 H,0,1.164,-5.6034,2.7227\H,0,0.1999,-6.2366,4.0423\H,0,-0.9141,-5.2006
 ,1.3523\H,0,-1.1121,-6.8445,2.0737\H,0,-2.7157,-5.1031,6.0279\H,0,-2.6
 067,-3.5904,6.8429\H,0,-0.4424,-3.8551,7.279\H,0,1.3486,-7.6003,7.7067
 \H,0,2.378,-7.6111,6.2607\H,0,0.6976,-8.1631,6.1231\H,0,1.9069,-3.3564
 ,7.4049\H,0,3.3753,-3.1371,6.4644\H,0,2.169,-1.8314,6.5386\\Version=ES
 64L-G16RevB.01\State=1-A\HF=-2300.1987929\RMSD=3.907e-09\Dipole=0.0311
 043,2.0093438,-1.5129628\Quadrupole=4.6040533,-7.9133351,3.3092818,-5.
 7017758,10.1445082,11.3577998\PG=C01 [X(C45H56N4O5)]\\@


 THE FIRST MORNING OF CREATION WROTE WHAT THE LAST DAWN OF
 RECKONING SHALL READ. -- OMAR KHAYYAM
 Job cpu time:       0 days  0 hours 11 minutes 59.5 seconds.
 Elapsed time:       0 days  0 hours  2 minutes  1.8 seconds.
 File lengths (MBytes):  RWF=     67 Int=      0 D2E=      0 Chk=     10 Scr=      1
 Normal termination of Gaussian 16 at Thu May 30 09:33:35 2024.
