 Entering Gaussian System, Link 0=g16
 Input=2_pleiokomenine_2a_c_11.gjf
 Output=2_pleiokomenine_2a_c_11.log
 Initial command:
 /opt/gaussian/g16/l1.exe "/data/abenidd/Elvis/pleiokomenine_C/NMR_HF/2a/2_pleiokomenine_2a_c_11/Gau-26854.inp" -scrdir="/data/abenidd/Elvis/pleiokomenine_C/NMR_HF/2a/2_pleiokomenine_2a_c_11/"
 Entering Link 1 = /opt/gaussian/g16/l1.exe PID=     26856.
  
 Copyright (c) 1988-2017, Gaussian, Inc.  All Rights Reserved.
  
 This is part of the Gaussian(R) 16 program.  It is based on
 the Gaussian(R) 09 system (copyright 2009, Gaussian, Inc.),
 the Gaussian(R) 03 system (copyright 2003, Gaussian, Inc.),
 the Gaussian(R) 98 system (copyright 1998, Gaussian, Inc.),
 the Gaussian(R) 94 system (copyright 1995, Gaussian, Inc.),
 the Gaussian 92(TM) system (copyright 1992, Gaussian, Inc.),
 the Gaussian 90(TM) system (copyright 1990, Gaussian, Inc.),
 the Gaussian 88(TM) system (copyright 1988, Gaussian, Inc.),
 the Gaussian 86(TM) system (copyright 1986, Carnegie Mellon
 University), and the Gaussian 82(TM) system (copyright 1983,
 Carnegie Mellon University). Gaussian is a federally registered
 trademark of Gaussian, Inc.
  
 This software contains proprietary and confidential information,
 including trade secrets, belonging to Gaussian, Inc.
  
 This software is provided under written license and may be
 used, copied, transmitted, or stored only in accord with that
 written license.
  
 The following legend is applicable only to US Government
 contracts under FAR:
  
                    RESTRICTED RIGHTS LEGEND
  
 Use, reproduction and disclosure by the US Government is
 subject to restrictions as set forth in subparagraphs (a)
 and (c) of the Commercial Computer Software - Restricted
 Rights clause in FAR 52.227-19.
  
 Gaussian, Inc.
 340 Quinnipiac St., Bldg. 40, Wallingford CT 06492
  
  
 ---------------------------------------------------------------
 Warning -- This program may not be used in any manner that
 competes with the business of Gaussian, Inc. or will provide
 assistance to any competitor of Gaussian, Inc.  The licensee
 of this program is prohibited from giving any competitor of
 Gaussian, Inc. access to this program.  By using this program,
 the user acknowledges that Gaussian, Inc. is engaged in the
 business of creating and licensing software in the field of
 computational chemistry and represents and warrants to the
 licensee that it is not a competitor of Gaussian, Inc. and that
 it will not use this program in any manner prohibited above.
 ---------------------------------------------------------------
  

 Cite this work as:
 Gaussian 16, Revision B.01,
 M. J. Frisch, G. W. Trucks, H. B. Schlegel, G. E. Scuseria, 
 M. A. Robb, J. R. Cheeseman, G. Scalmani, V. Barone, 
 G. A. Petersson, H. Nakatsuji, X. Li, M. Caricato, A. V. Marenich, 
 J. Bloino, B. G. Janesko, R. Gomperts, B. Mennucci, H. P. Hratchian, 
 J. V. Ortiz, A. F. Izmaylov, J. L. Sonnenberg, D. Williams-Young, 
 F. Ding, F. Lipparini, F. Egidi, J. Goings, B. Peng, A. Petrone, 
 T. Henderson, D. Ranasinghe, V. G. Zakrzewski, J. Gao, N. Rega, 
 G. Zheng, W. Liang, M. Hada, M. Ehara, K. Toyota, R. Fukuda, 
 J. Hasegawa, M. Ishida, T. Nakajima, Y. Honda, O. Kitao, H. Nakai, 
 T. Vreven, K. Throssell, J. A. Montgomery, Jr., J. E. Peralta, 
 F. Ogliaro, M. J. Bearpark, J. J. Heyd, E. N. Brothers, K. N. Kudin, 
 V. N. Staroverov, T. A. Keith, R. Kobayashi, J. Normand, 
 K. Raghavachari, A. P. Rendell, J. C. Burant, S. S. Iyengar, 
 J. Tomasi, M. Cossi, J. M. Millam, M. Klene, C. Adamo, R. Cammi, 
 J. W. Ochterski, R. L. Martin, K. Morokuma, O. Farkas, 
 J. B. Foresman, and D. J. Fox, Gaussian, Inc., Wallingford CT, 2016.
 
 ******************************************
 Gaussian 16:  ES64L-G16RevB.01 20-Dec-2017
                30-May-2024 
 ******************************************
 %nprocshared=8
 Will use up to    8 processors via shared memory.
 ----------------------------------------------
 # nmr=giao hf/sto-3g pop=nbo geom=connectivity
 ----------------------------------------------
 1/38=1,57=2,172=1/1;
 2/12=2,17=6,18=5,40=1/2;
 3/6=3,11=9,25=1,30=1/1,2,3,8;
 4//1;
 5/5=2,38=5/2;
 8/6=1,10=90,11=11/1;
 10/13=100,45=16/2;
 6/7=2,8=2,9=2,10=2,28=1,40=1,64=1/1,7;
 99/9=1/99;
 -----------------
 Pleiokomenine_C_2
 -----------------
 Symbolic Z-matrix:
 Charge =  0 Multiplicity = 1
 C                     0.        0.        0. 
 C                     1.4031    0.        0. 
 C                     2.0978    1.2286    0. 
 C                     1.415     2.4518    0.0143 
 C                     0.0319    2.4448    0.0213 
 C                    -0.6608    1.2172    0.0337 
 N                    -0.853     3.56      0.0099 
 C                    -2.1322    1.513     0.1922 
 C                    -2.1215    2.9422   -0.4614 
 C                    -3.2038    0.6631   -0.4905 
 C                    -2.0452    2.7885   -2.0492 
 C                    -3.2182    1.974    -2.5981 
 C                    -4.0975    1.4987   -1.4358 
 N                    -4.0655    0.2296    0.6084 
 C                    -5.0044   -0.7952    0.2128 
 C                    -5.9689   -0.1577   -0.802 
 C                    -5.2506    0.5966   -1.937 
 C                    -2.4181    1.3176    1.7065 
 C                    -3.2225    0.0163    1.7598 
 C                    -4.6182    2.7859   -0.7032 
 C                    -3.4432    3.7065   -0.2348 
 C                    -3.68      4.291     1.1484 
 O                    -4.6018    3.9906    1.8963 
 O                    -2.7804    5.2793    1.4169 
 C                    -2.9316    5.8748    2.705 
 C                    -0.3516    4.7902   -0.5833 
 C                     2.1693   -1.3087    0.0252 
 C                     1.7857   -2.2451    1.1563 
 C                     1.5811   -1.7584    2.4567 
 C                     1.636    -3.6267    0.9012 
 C                     1.2669   -4.5232    1.9133 
 C                     1.0535   -4.035     3.1876 
 C                     1.1916   -2.6516    3.4408 
 N                     0.7167   -4.7533    4.3656 
 C                     0.7348   -2.4006    4.861 
 C                     1.1377   -3.8083    5.4257 
 C                     1.3656   -1.3532    5.7605 
 C                     2.7456   -3.8985    5.5365 
 C                     3.3329   -2.714     6.3099 
 C                     2.183    -1.9086    6.936 
 N                     0.218    -0.4915    6.2634 
 C                     0.7986    0.7731    6.8034 
 C                     1.6895    0.4197    8.0119 
 C                     2.7201   -0.7022    7.7445 
 C                    -0.7298   -1.8995    4.6842 
 C                    -0.6521   -0.4101    5.064 
 C                     1.3776   -2.9509    7.7858 
 C                     0.685    -4.0408    6.8854 
 C                    -0.8094   -4.2003    7.1241 
 O                    -1.6276   -4.5687    6.2914 
 O                    -1.1018   -4.0406    8.4487 
 C                    -2.4949   -4.11      8.7471 
 C                     1.0233   -6.168     4.4321 
 O                    -0.552    -1.0521    7.2524 
 H                    -0.5559   -0.9331    0.0253 
 H                     3.186     1.2391   -0.0008 
 H                     1.9744    3.3801    0.0222 
 H                    -2.7552   -0.1937   -1.0115 
 H                    -1.1091    2.3204   -2.3781 
 H                    -2.0464    3.7789   -2.5238 
 H                    -3.7998    2.5833   -3.3009 
 H                    -2.834     1.1215   -3.1723 
 H                    -4.4978   -1.664    -0.224 
 H                    -5.5839   -1.1469    1.0738 
 H                    -6.6166   -0.9317   -1.2297 
 H                    -6.6292    0.544    -0.276 
 H                    -4.8448   -0.1519   -2.6307 
 H                    -5.9797    1.185    -2.5067 
 H                    -1.5246    1.2402    2.3369 
 H                    -3.0219    2.1224    2.1229 
 H                    -2.5797   -0.8644    1.6521 
 H                    -3.7896   -0.0609    2.6922 
 H                    -5.2709    2.5118    0.1318 
 H                    -5.2545    3.3595   -1.391 
 H                    -3.4644    4.5885   -0.8934 
 H                    -3.8937    6.3914    2.7763 
 H                    -2.1331    6.6108    2.8331 
 H                    -2.8353    5.1205    3.4923 
 H                     0.0786    4.6232   -1.5772 
 H                     0.4139    5.2389    0.0586 
 H                    -1.1542    5.5269   -0.6859 
 H                     2.0091   -1.7992   -0.9435 
 H                     3.2471   -1.1188    0.105 
 H                     1.6721   -0.6987    2.6725 
 H                     1.7979   -4.0152   -0.1025 
 H                     1.1519   -5.5767    1.6865 
 H                     1.9873   -0.6796    5.1519 
 H                     3.2435   -3.958     4.561 
 H                     3.0229   -4.8339    6.0421 
 H                     4.0301   -3.0753    7.0757 
 H                     3.9213   -2.0861    5.6286 
 H                    -0.0413    1.4126    7.0946 
 H                     1.3635    1.2534    5.9978 
 H                     1.0531    0.1064    8.849 
 H                     2.2138    1.3211    8.3494 
 H                     3.5496   -0.2466    7.1866 
 H                     3.145    -1.042     8.6967 
 H                    -1.1455   -2.0072    3.6755 
 H                    -1.422    -2.4035    5.3575 
 H                    -0.1417    0.2038    4.3152 
 H                    -1.6148    0.0259    5.3455 
 H                     0.6878   -2.4631    8.4771 
 H                     2.0825   -3.469     8.4528 
 H                     1.0793   -5.0148    7.2137 
 H                    -3.0572   -3.3849    8.1498 
 H                    -2.8691   -5.1246    8.58 
 H                    -2.6278   -3.8616    9.8037 
 H                     0.7528   -6.5723    5.4124 
 H                     0.4423   -6.7247    3.6891 
 H                     2.0875   -6.365     4.2633 
 
 Stoichiometry    C45H56N4O5
 Framework group  C1[X(C45H56N4O5)]
 Deg. of freedom   324
 Full point group                 C1      NOp   1
 Largest Abelian subgroup         C1      NOp   1
 Largest concise Abelian subgroup C1      NOp   1
                         Standard orientation:                         
 ---------------------------------------------------------------------
 Center     Atomic      Atomic             Coordinates (Angstroms)
 Number     Number       Type             X           Y           Z
 ---------------------------------------------------------------------
      1          6           0       -1.867786   -2.027660   -1.001979
      2          6           0       -1.317424   -2.460423   -2.217918
      3          6           0       -1.784512   -1.905231   -3.428561
      4          6           0       -2.778724   -0.918315   -3.441917
      5          6           0       -3.312158   -0.491092   -2.239423
      6          6           0       -2.836262   -1.037397   -1.030265
      7          7           0       -4.338505    0.472119   -2.025680
      8          6           0       -3.481235   -0.284827    0.107843
      9          6           0       -4.791979    0.139003   -0.648622
     10          6           0       -3.864795   -0.975394    1.416558
     11          6           0       -5.773902   -1.117626   -0.733862
     12          6           0       -6.125483   -1.658948    0.653218
     13          6           0       -5.375845   -0.853235    1.720405
     14          7           0       -3.177513   -0.194323    2.443982
     15          6           0       -3.204048   -0.829799    3.741562
     16          6           0       -4.671959   -0.859631    4.200729
     17          6           0       -5.633710   -1.421406    3.136496
     18          6           0       -2.422500    0.765186    0.543247
     19          6           0       -1.917606    0.236460    1.888168
     20          6           0       -5.845395    0.638056    1.577960
     21          6           0       -5.612890    1.187575    0.131759
     22          6           0       -5.095558    2.617024    0.130411
     23          8           0       -4.756107    3.248682    1.122928
     24          8           0       -5.150869    3.150761   -1.122656
     25          6           0       -4.672729    4.492607   -1.209340
     26          6           0       -5.294970    0.663213   -3.105187
     27          6           0       -0.211557   -3.498329   -2.232113
     28          6           0        0.988386   -3.156627   -1.367961
     29          6           0        1.519630   -1.857645   -1.353735
     30          6           0        1.583919   -4.158385   -0.569133
     31          6           0        2.682761   -3.881368    0.255549
     32          6           0        3.191497   -2.597419    0.275093
     33          6           0        2.589009   -1.592317   -0.514689
     34          7           0        4.311128   -2.099978    0.993461
     35          6           0        3.246539   -0.277389   -0.157958
     36          6           0        4.644741   -0.878973    0.224093
     37          6           0        3.489100    0.828052   -1.169501
     38          6           0        5.406798   -1.352065   -1.117998
     39          6           0        5.462058   -0.237627   -2.167323
     40          6           0        4.961662    1.069732   -1.532219
     41          7           0        2.870024    2.081752   -0.571670
     42          6           0        2.712100    3.081313   -1.668870
     43          6           0        4.114847    3.450460   -2.193368
     44          6           0        5.008462    2.238499   -2.546783
     45          6           0        2.247435    0.361592    0.852441
     46          6           0        1.645502    1.542354    0.070089
     47          6           0        5.864249    1.273801   -0.266948
     48          6           0        5.622405    0.160159    0.819151
     49          6           0        5.298271    0.692094    2.207542
     50          8           0        4.619926    0.117532    3.049140
     51          8           0        6.008752    1.830686    2.461294
     52          6           0        5.711638    2.430550    3.720848
     53          6           0        5.329253   -3.032945    1.432546
     54          8           0        3.593346    2.676253    0.432655
     55          1           0       -1.506539   -2.422479   -0.056485
     56          1           0       -1.364546   -2.234865   -4.376854
     57          1           0       -3.112616   -0.503810   -4.386075
     58          1           0       -3.535439   -2.023390    1.420973
     59          1           0       -5.353700   -1.935003   -1.332944
     60          1           0       -6.700668   -0.836781   -1.251907
     61          1           0       -7.209219   -1.601155    0.813247
     62          1           0       -5.860979   -2.722478    0.708121
     63          1           0       -2.786154   -1.842914    3.706710
     64          1           0       -2.620784   -0.254869    4.469636
     65          1           0       -4.757573   -1.450833    5.119788
     66          1           0       -4.987510    0.160102    4.456906
     67          1           0       -5.506455   -2.512023    3.113992
     68          1           0       -6.670145   -1.235911    3.442688
     69          1           0       -1.586968    0.892480   -0.154907
     70          1           0       -2.854184    1.753592    0.692814
     71          1           0       -1.210223   -0.590487    1.760922
     72          1           0       -1.445058    1.030603    2.473802
     73          1           0       -5.355640    1.265548    2.329470
     74          1           0       -6.918663    0.701102    1.803977
     75          1           0       -6.610225    1.274958   -0.326295
     76          1           0       -5.311496    5.163942   -0.627206
     77          1           0       -4.713472    4.798990   -2.258233
     78          1           0       -3.633292    4.554185   -0.871906
     79          1           0       -5.716992   -0.285679   -3.454902
     80          1           0       -4.818344    1.167712   -3.952339
     81          1           0       -6.124622    1.298691   -2.780740
     82          1           0       -0.652895   -4.449684   -1.908418
     83          1           0        0.152396   -3.654692   -3.255427
     84          1           0        1.067512   -1.067523   -1.944592
     85          1           0        1.183178   -5.170264   -0.577200
     86          1           0        3.114082   -4.668080    0.863473
     87          1           0        2.904167    0.622423   -2.078464
     88          1           0        4.959418   -2.241337   -1.578531
     89          1           0        6.430316   -1.661426   -0.864609
     90          1           0        6.485668   -0.130648   -2.546604
     91          1           0        4.841008   -0.513659   -3.029151
     92          1           0        2.200232    3.949373   -1.240324
     93          1           0        2.084228    2.631092   -2.444673
     94          1           0        4.636053    4.049878   -1.436439
     95          1           0        4.012629    4.094931   -3.074009
     96          1           0        4.671532    1.868546   -3.524795
     97          1           0        6.041968    2.576389   -2.689554
     98          1           0        1.447621   -0.299853    1.205527
     99          1           0        2.747621    0.741509    1.742366
    100          1           0        0.955336    1.233283   -0.721257
    101          1           0        1.201220    2.313894    0.705280
    102          1           0        5.780861    2.287021    0.130671
    103          1           0        6.916549    1.209464   -0.581155
    104          1           0        6.591733   -0.336407    0.979631
    105          1           0        4.639144    2.630450    3.813117
    106          1           0        6.059395    1.790890    4.537709
    107          1           0        6.244884    3.383616    3.776358
    108          1           0        6.148363   -2.500848    1.926051
    109          1           0        4.919691   -3.734375    2.167243
    110          1           0        5.747864   -3.605417    0.597761
 ---------------------------------------------------------------------
 Rotational constants (GHZ):           0.0881326           0.0319469           0.0311967
 Standard basis: STO-3G (5D, 7F)
 There are   326 symmetry adapted cartesian basis functions of A   symmetry.
 There are   326 symmetry adapted basis functions of A   symmetry.
   326 basis functions,   978 primitive gaussians,   326 cartesian basis functions
   197 alpha electrons      197 beta electrons
       nuclear repulsion energy      8106.2995191198 Hartrees.
 NAtoms=  110 NActive=  110 NUniq=  110 SFac= 1.00D+00 NAtFMM=   60 NAOKFM=T Big=T
 Integral buffers will be    131072 words long.
 Raffenetti 1 integral format.
 Two-electron integral symmetry is turned on.
 One-electron integrals computed using PRISM.
 NBasis=   326 RedAO= T EigKep=  1.73D-01  NBF=   326
 NBsUse=   326 1.00D-06 EigRej= -1.00D+00 NBFU=   326
 ExpMin= 1.69D-01 ExpMax= 1.31D+02 ExpMxC= 1.31D+02 IAcc=3 IRadAn=         5 AccDes= 0.00D+00
 Harris functional with IExCor=  205 and IRadAn=       5 diagonalized for initial guess.
 HarFok:  IExCor=  205 AccDes= 0.00D+00 IRadAn=         5 IDoV= 1 UseB2=F ITyADJ=14
 ICtDFT=  3500011 ScaDFX=  1.000000  1.000000  1.000000  1.000000
 FoFCou: FMM=F IPFlag=           0 FMFlag=      100000 FMFlg1=        2001
         NFxFlg=           0 DoJE=T BraDBF=F KetDBF=T FulRan=T
         wScrn=  0.000000 ICntrl=       500 IOpCl=  0 I1Cent=   200000004 NGrid=           0
         NMat0=    1 NMatS0=      1 NMatT0=    0 NMatD0=    1 NMtDS0=    0 NMtDT0=    0
 Petite list used in FoFCou.
 Requested convergence on RMS density matrix=1.00D-08 within 128 cycles.
 Requested convergence on MAX density matrix=1.00D-06.
 Requested convergence on             energy=1.00D-06.
 No special actions if energy rises.
 Integral accuracy reduced to 1.0D-05 until final iterations.
 Initial convergence to 1.0D-05 achieved.  Increase integral accuracy.
 SCF Done:  E(RHF) =  -2300.19709009     A.U. after   16 cycles
            NFock= 16  Conv=0.40D-08     -V/T= 2.0093
 Range of M.O.s used for correlation:     1   326
 NBasis=   326 NAE=   197 NBE=   197 NFC=     0 NFV=     0
 NROrb=    326 NOA=   197 NOB=   197 NVA=   129 NVB=   129
          Differentiating once with respect to magnetic field using GIAOs.
          Electric field/nuclear overlap derivatives assumed to be zero.
 FoFCou: FMM=F IPFlag=           0 FMFlag=      100000 FMFlg1=        2001
         NFxFlg=           0 DoJE=F BraDBF=F KetDBF=T FulRan=T
         wScrn=  0.000000 ICntrl=      6100 IOpCl=  0 I1Cent=           7 NGrid=         110
         NMat0=    1 NMatS0=      1 NMatT0=    0 NMatD0=    1 NMtDS0=    0 NMtDT0=    0
 Symmetry not used in FoFCou.
 FoFJK:  IHMeth= 1 ICntrl=    6127 DoSepK=F KAlg= 0 I1Cent=           0 FoldK=F
 IRaf=         1 NMat=       1 IRICut=       1 DoRegI=T DoRafI=F ISym2E= 0 IDoP0=0 IntGTp=1.
          There are     3 degrees of freedom in the 1st order CPHF.  IDoFFX=0 NUNeed=     3.
      3 vectors produced by pass  0 Test12= 8.47D-13 3.33D-08 XBig12= 1.74D+02 2.11D+00.
 AX will form     3 AO Fock derivatives at one time.
      3 vectors produced by pass  1 Test12= 8.47D-13 3.33D-08 XBig12= 6.34D-01 2.55D-01.
      3 vectors produced by pass  2 Test12= 8.47D-13 3.33D-08 XBig12= 1.80D-02 3.41D-02.
      3 vectors produced by pass  3 Test12= 8.47D-13 3.33D-08 XBig12= 5.43D-04 7.55D-03.
      3 vectors produced by pass  4 Test12= 8.47D-13 3.33D-08 XBig12= 2.02D-05 7.40D-04.
      3 vectors produced by pass  5 Test12= 8.47D-13 3.33D-08 XBig12= 3.73D-07 1.01D-04.
      3 vectors produced by pass  6 Test12= 8.47D-13 3.33D-08 XBig12= 1.45D-08 2.66D-05.
      3 vectors produced by pass  7 Test12= 8.47D-13 3.33D-08 XBig12= 3.62D-10 2.85D-06.
      3 vectors produced by pass  8 Test12= 8.47D-13 3.33D-08 XBig12= 5.68D-12 3.42D-07.
      3 vectors produced by pass  9 Test12= 8.47D-13 3.33D-08 XBig12= 8.86D-14 5.95D-08.
 InvSVY:  IOpt=1 It=  1 EMax= 5.33D-15
 Solved reduced A of dimension    30 with     3 vectors.
 Calculating GIAO nuclear magnetic shielding tensors.
 SCF GIAO Magnetic shielding tensor (ppm):
      1  C    Isotropic =   126.1497   Anisotropy =   153.5030
   XX=   167.9593   YX=    65.6165   ZX=   -22.8555
   XY=    63.4296   YY=   159.6533   ZY=    20.2102
   XZ=   -21.7598   YZ=    33.0236   ZZ=    50.8366
   Eigenvalues:    32.7184   117.2457   228.4851
      2  C    Isotropic =   118.2657   Anisotropy =   163.0516
   XX=   124.9776   YX=    96.2697   ZX=    10.8393
   XY=    89.8544   YY=   140.8423   ZY=     2.5461
   XZ=     7.2695   YZ=     6.6789   ZZ=    88.9773
   Eigenvalues:    39.2547    88.5757   226.9668
      3  C    Isotropic =   119.0749   Anisotropy =   151.2511
   XX=   150.2972   YX=    66.7999   ZX=    38.7921
   XY=    63.3966   YY=   156.6199   ZY=   -11.5935
   XZ=    35.3515   YZ=   -19.7201   ZZ=    50.3077
   Eigenvalues:    26.3697   110.9461   219.9090
      4  C    Isotropic =   133.5020   Anisotropy =   144.3411
   XX=   170.1163   YX=    62.2437   ZX=   -18.1331
   XY=    63.2619   YY=   162.8517   ZY=    28.5434
   XZ=   -10.6764   YZ=    24.5990   ZZ=    67.5380
   Eigenvalues:    50.9895   119.7871   229.7294
      5  C    Isotropic =   108.2033   Anisotropy =   129.8311
   XX=   119.1390   YX=    73.7524   ZX=    -4.1706
   XY=    79.6747   YY=   116.9112   ZY=    -5.4558
   XZ=    -4.2280   YZ=    10.9550   ZZ=    88.5596
   Eigenvalues:    40.7995    89.0531   194.7573
      6  C    Isotropic =   117.3450   Anisotropy =   144.5514
   XX=   154.5238   YX=    64.8006   ZX=    16.4129
   XY=    64.7827   YY=   141.5924   ZY=     0.7656
   XZ=    18.1263   YZ=   -11.5492   ZZ=    55.9187
   Eigenvalues:    48.3784    89.9439   213.7126
      7  N    Isotropic =   272.2775   Anisotropy =    82.8922
   XX=   302.3265   YX=   -23.7323   ZX=   -18.6381
   XY=   -31.8015   YY=   263.1127   ZY=     5.1988
   XZ=   -35.9981   YZ=    14.0124   ZZ=   251.3934
   Eigenvalues:   239.1047   250.1889   327.5390
      8  C    Isotropic =   198.3737   Anisotropy =    11.6627
   XX=   195.8023   YX=    -0.8557   ZX=     7.3806
   XY=     2.6489   YY=   197.9040   ZY=    -0.4400
   XZ=     3.4093   YZ=    -8.4168   ZZ=   201.4147
   Eigenvalues:   190.9902   197.9820   206.1488
      9  C    Isotropic =   180.0930   Anisotropy =    43.3374
   XX=   171.4546   YX=   -20.3816   ZX=    -8.7968
   XY=    -3.6455   YY=   164.5724   ZY=   -18.7256
   XZ=    -4.2496   YZ=    -9.6156   ZZ=   204.2522
   Eigenvalues:   151.1136   180.1809   208.9846
     10  C    Isotropic =   189.8285   Anisotropy =    32.1239
   XX=   189.9357   YX=     6.8307   ZX=    14.2596
   XY=    13.2495   YY=   180.9650   ZY=     1.3874
   XZ=    13.6744   YZ=     4.3765   ZZ=   198.5847
   Eigenvalues:   172.9701   185.2709   211.2444
     11  C    Isotropic =   212.8214   Anisotropy =    21.3098
   XX=   213.6842   YX=    10.6652   ZX=    -1.2687
   XY=    13.2665   YY=   216.2729   ZY=     4.1397
   XZ=    -0.2609   YZ=    -4.1184   ZZ=   208.5070
   Eigenvalues:   202.8837   208.5525   227.0279
     12  C    Isotropic =   214.5872   Anisotropy =    19.0003
   XX=   208.7394   YX=     5.7961   ZX=     6.2153
   XY=     6.7342   YY=   212.1403   ZY=     2.6249
   XZ=     5.3763   YZ=     4.9830   ZZ=   222.8817
   Eigenvalues:   203.6204   212.8871   227.2541
     13  C    Isotropic =   211.0182   Anisotropy =     8.2144
   XX=   210.2208   YX=    -0.3107   ZX=    -3.5935
   XY=     2.8162   YY=   210.7962   ZY=    -1.9951
   XZ=    -3.2702   YZ=    -4.1322   ZZ=   212.0374
   Eigenvalues:   207.2300   209.3300   216.4945
     14  N    Isotropic =   300.9235   Anisotropy =    58.4191
   XX=   308.1462   YX=    38.1428   ZX=    11.3656
   XY=    39.0712   YY=   265.0767   ZY=     3.2272
   XZ=    12.5512   YZ=    -6.9028   ZZ=   329.5476
   Eigenvalues:   241.7322   321.1687   339.8695
     15  C    Isotropic =   202.5988   Anisotropy =    39.7981
   XX=   192.9687   YX=    -0.4477   ZX=    -6.4970
   XY=     0.2836   YY=   191.5283   ZY=   -13.1644
   XZ=    -5.4666   YZ=   -13.8496   ZZ=   223.2993
   Eigenvalues:   185.8446   192.8209   229.1308
     16  C    Isotropic =   219.6078   Anisotropy =    10.5787
   XX=   225.2139   YX=     2.8865   ZX=    -2.3765
   XY=     4.2572   YY=   210.8521   ZY=    -0.8536
   XZ=    -1.3432   YZ=     3.5403   ZZ=   222.7573
   Eigenvalues:   209.7789   222.3842   226.6603
     17  C    Isotropic =   214.1370   Anisotropy =    22.9222
   XX=   207.3622   YX=     4.6603   ZX=    -2.3067
   XY=     3.0470   YY=   207.3574   ZY=    -4.9525
   XZ=     0.5925   YZ=    -6.7855   ZZ=   227.6914
   Eigenvalues:   202.9354   210.0572   229.4184
     18  C    Isotropic =   209.4613   Anisotropy =    31.4836
   XX=   211.1801   YX=    17.7291   ZX=    11.6897
   XY=    21.4362   YY=   199.7822   ZY=     0.0105
   XZ=     4.7818   YZ=     3.4891   ZZ=   217.4217
   Eigenvalues:   184.6851   213.2485   230.4504
     19  C    Isotropic =   200.5513   Anisotropy =    43.5583
   XX=   214.1541   YX=    20.1190   ZX=    -7.1806
   XY=    13.8961   YY=   185.4877   ZY=   -10.0829
   XZ=   -15.2743   YZ=    -9.5541   ZZ=   202.0121
   Eigenvalues:   176.7413   195.3224   229.5902
     20  C    Isotropic =   212.3527   Anisotropy =    20.4197
   XX=   204.6208   YX=    -6.1260   ZX=    -6.5620
   XY=    -5.4922   YY=   221.3349   ZY=    -7.8643
   XZ=    -4.7218   YZ=    -7.9792   ZZ=   211.1023
   Eigenvalues:   197.7772   213.3150   225.9658
     21  C    Isotropic =   208.3261   Anisotropy =    10.5512
   XX=   207.2266   YX=    -0.6276   ZX=    -6.4143
   XY=    -0.0224   YY=   215.1730   ZY=    -3.3267
   XZ=    -4.1057   YZ=     5.4639   ZZ=   202.5789
   Eigenvalues:   199.1200   210.4981   215.3603
     22  C    Isotropic =    97.2141   Anisotropy =    98.7086
   XX=   151.9358   YX=   -23.0351   ZX=    14.0439
   XY=   -27.0686   YY=    43.1149   ZY=    78.1238
   XZ=    20.9274   YZ=   100.0771   ZZ=    96.5915
   Eigenvalues:   -28.3453   156.9677   163.0198
     23  O    Isotropic =  -137.3595   Anisotropy =   890.8215
   XX=   356.0236   YX=  -236.6163   ZX=  -166.1517
   XY=  -246.1274   YY=  -284.5863   ZY=   -82.5466
   XZ=  -169.3699   YZ=   -70.5582   ZZ=  -483.5160
   Eigenvalues:  -576.4507  -292.1494   456.5215
     24  O    Isotropic =   284.5146   Anisotropy =   138.6845
   XX=   330.6041   YX=   -76.0591   ZX=     5.5581
   XY=   -71.6878   YY=   164.3373   ZY=     7.7449
   XZ=   -42.7999   YZ=  -131.3878   ZZ=   358.6025
   Eigenvalues:   118.9436   357.6294   376.9710
     25  C    Isotropic =   197.4292   Anisotropy =    56.9018
   XX=   184.4125   YX=    15.4391   ZX=    -1.5996
   XY=    15.1368   YY=   229.7375   ZY=    -6.9226
   XZ=    -2.2425   YZ=    -7.3371   ZZ=   178.1375
   Eigenvalues:   177.1624   179.7614   235.3637
     26  C    Isotropic =   209.7969   Anisotropy =    42.0081
   XX=   210.4910   YX=    -4.2653   ZX=    21.3052
   XY=    -5.5998   YY=   200.2368   ZY=    -4.4878
   XZ=    21.3807   YZ=    -6.8014   ZZ=   218.6630
   Eigenvalues:   192.8396   198.7489   237.8023
     27  C    Isotropic =   206.1459   Anisotropy =    20.5575
   XX=   211.8218   YX=    -6.9488   ZX=     7.4941
   XY=    -8.6212   YY=   205.8628   ZY=     3.5973
   XZ=    12.3351   YZ=     2.3406   ZZ=   200.7531
   Eigenvalues:   191.7080   206.8789   219.8510
     28  C    Isotropic =   118.3691   Anisotropy =   161.2535
   XX=   105.9304   YX=   -36.3883   ZX=   -85.3989
   XY=   -29.0969   YY=    94.3042   ZY=    20.7882
   XZ=   -80.0042   YZ=    16.8515   ZZ=   154.8728
   Eigenvalues:    39.4897    89.7462   225.8715
     29  C    Isotropic =   127.7801   Anisotropy =   152.4731
   XX=   154.7057   YX=    11.6416   ZX=   -70.7076
   XY=    10.8894   YY=    74.5213   ZY=    54.6698
   XZ=   -70.0650   YZ=    40.8796   ZZ=   154.1134
   Eigenvalues:    35.2224   118.6891   229.4289
     30  C    Isotropic =   118.7505   Anisotropy =   152.0113
   XX=   141.0522   YX=   -50.3132   ZX=   -51.4240
   XY=   -48.2750   YY=    47.7539   ZY=    14.2190
   XZ=   -52.5240   YZ=    23.2292   ZZ=   167.4453
   Eigenvalues:    26.4405   109.7196   220.0914
     31  C    Isotropic =   134.0172   Anisotropy =   143.7531
   XX=   153.0372   YX=     8.7477   ZX=   -67.9554
   XY=     0.6073   YY=    89.0486   ZY=    44.4875
   XZ=   -65.1379   YZ=    46.5487   ZZ=   159.9657
   Eigenvalues:    52.0033   120.1956   229.8526
     32  C    Isotropic =   108.5121   Anisotropy =   130.4747
   XX=   100.2665   YX=   -14.6681   ZX=   -71.6513
   XY=   -14.2612   YY=    91.4374   ZY=    18.5213
   XZ=   -75.8056   YZ=     2.2816   ZZ=   133.8323
   Eigenvalues:    40.9566    89.0844   195.4952
     33  C    Isotropic =   117.6796   Anisotropy =   143.0899
   XX=   143.2000   YX=   -28.8256   ZX=   -58.0286
   XY=   -31.3669   YY=    58.1987   ZY=    14.1716
   XZ=   -56.8450   YZ=    26.1885   ZZ=   151.6401
   Eigenvalues:    48.5730    91.3930   213.0729
     34  N    Isotropic =   273.3567   Anisotropy =    85.6848
   XX=   306.0888   YX=    28.6247   ZX=     9.9159
   XY=    48.0727   YY=   261.1116   ZY=    12.3527
   XZ=    12.0846   YZ=     4.4101   ZZ=   252.8697
   Eigenvalues:   238.8700   250.7202   330.4799
     35  C    Isotropic =   200.8790   Anisotropy =    13.4043
   XX=   196.7959   YX=    -6.1572   ZX=     5.8521
   XY=    -5.2731   YY=   199.3698   ZY=    -7.0790
   XZ=     1.3741   YZ=     1.6301   ZZ=   206.4713
   Eigenvalues:   192.1260   200.6958   209.8152
     36  C    Isotropic =   179.3695   Anisotropy =    39.6078
   XX=   173.4040   YX=     8.0604   ZX=    17.5721
   XY=     1.0413   YY=   191.1432   ZY=   -16.6014
   XZ=     3.3858   YZ=   -26.5075   ZZ=   173.5614
   Eigenvalues:   152.8945   179.4394   205.7747
     37  C    Isotropic =   184.0266   Anisotropy =    42.5978
   XX=   176.6682   YX=   -14.9929   ZX=   -13.6952
   XY=   -17.0043   YY=   198.4622   ZY=     7.4815
   XZ=   -20.3881   YZ=     4.5549   ZZ=   176.9493
   Eigenvalues:   158.2495   181.4051   212.4251
     38  C    Isotropic =   211.1101   Anisotropy =    23.8988
   XX=   208.3480   YX=     1.3298   ZX=   -10.6059
   XY=    -2.8296   YY=   206.9228   ZY=     0.3980
   XZ=   -13.8245   YZ=     7.5937   ZZ=   218.0595
   Eigenvalues:   199.6675   206.6201   227.0426
     39  C    Isotropic =   212.8934   Anisotropy =    19.7782
   XX=   204.6515   YX=    -6.8534   ZX=    -0.6593
   XY=    -4.0556   YY=   223.4820   ZY=     5.8733
   XZ=    -2.4888   YZ=     1.9577   ZZ=   210.5467
   Eigenvalues:   203.1472   209.4541   226.0789
     40  C    Isotropic =   211.6075   Anisotropy =    11.6743
   XX=   209.2144   YX=     4.5095   ZX=    -2.5477
   XY=     3.8652   YY=   212.8537   ZY=    -4.5948
   XZ=    -2.6802   YZ=    -3.9705   ZZ=   212.7544
   Eigenvalues:   206.4609   208.9712   219.3904
     41  N    Isotropic =   235.4020   Anisotropy =    24.5525
   XX=   245.3555   YX=     5.7407   ZX=     9.2299
   XY=    -8.4222   YY=   237.3588   ZY=     3.4123
   XZ=    12.8885   YZ=    24.0306   ZZ=   223.4917
   Eigenvalues:   211.9268   242.5088   251.7703
     42  C    Isotropic =   193.9876   Anisotropy =    49.8659
   XX=   182.0818   YX=    -2.8031   ZX=     0.7942
   XY=    -4.8754   YY=   198.3713   ZY=   -28.9293
   XZ=     4.4451   YZ=   -24.6475   ZZ=   201.5097
   Eigenvalues:   172.9923   181.7390   227.2315
     43  C    Isotropic =   219.3728   Anisotropy =    11.3371
   XX=   222.6312   YX=    -1.4546   ZX=    -6.7895
   XY=    -1.4609   YY=   223.6284   ZY=    -2.8168
   XZ=    -8.8862   YZ=    -5.4668   ZZ=   211.8590
   Eigenvalues:   206.6239   224.5637   226.9309
     44  C    Isotropic =   214.8915   Anisotropy =    22.4146
   XX=   205.6956   YX=    -0.8743   ZX=    -4.6445
   XY=    -3.0381   YY=   223.3749   ZY=   -10.1138
   XZ=    -1.7524   YZ=    -9.0593   ZZ=   215.6041
   Eigenvalues:   203.2961   211.5438   229.8346
     45  C    Isotropic =   207.2922   Anisotropy =    35.2837
   XX=   207.1512   YX=   -16.7846   ZX=   -16.0281
   XY=   -12.0571   YY=   215.5413   ZY=    -0.0757
   XZ=   -21.9248   YZ=    -2.4198   ZZ=   199.1839
   Eigenvalues:   180.6464   210.4155   230.8146
     46  C    Isotropic =   191.3209   Anisotropy =    55.9332
   XX=   210.3666   YX=     5.2379   ZX=   -24.6172
   XY=    16.2109   YY=   189.5259   ZY=    -9.9888
   XZ=   -23.7726   YZ=   -15.8206   ZZ=   174.0701
   Eigenvalues:   160.1915   185.1614   228.6096
     47  C    Isotropic =   211.7869   Anisotropy =    25.1887
   XX=   205.8857   YX=     5.9450   ZX=     8.1377
   XY=     5.3864   YY=   204.0938   ZY=    -6.2412
   XZ=     6.7329   YZ=    -5.8572   ZZ=   225.3813
   Eigenvalues:   196.1869   210.5944   228.5794
     48  C    Isotropic =   207.3103   Anisotropy =    16.4816
   XX=   201.9918   YX=     1.5845   ZX=     1.6964
   XY=     2.0882   YY=   208.6877   ZY=     9.2994
   XZ=     4.3047   YZ=     5.6544   ZZ=   211.2513
   Eigenvalues:   201.0485   202.5843   218.2980
     49  C    Isotropic =    98.3319   Anisotropy =    96.3479
   XX=   149.5307   YX=   -32.9837   ZX=   -32.6071
   XY=   -23.7404   YY=    62.5309   ZY=   -99.2405
   XZ=   -17.9991   YZ=   -79.2599   ZZ=    82.9339
   Eigenvalues:   -25.3593   157.7911   162.5638
     50  O    Isotropic =  -132.2843   Anisotropy =   879.0212
   XX=    75.3094   YX=  -396.8898   ZX=   290.4017
   XY=  -385.3991   YY=  -150.0697   ZY=   -38.2764
   XZ=   291.4141   YZ=   -24.1626   ZZ=  -322.0926
   Eigenvalues:  -569.3607  -281.2221   453.7298
     51  O    Isotropic =   285.9095   Anisotropy =   142.7325
   XX=   342.2695   YX=    47.2257   ZX=   102.7834
   XY=    -5.9054   YY=   366.4072   ZY=    38.9751
   XZ=    49.6515   YZ=   -85.4729   ZZ=   149.0517
   Eigenvalues:   119.2572   357.4067   381.0645
     52  C    Isotropic =   197.4990   Anisotropy =    56.5398
   XX=   181.1422   YX=    -3.1680   ZX=    -5.8931
   XY=    -4.2093   YY=   189.8995   ZY=    23.9884
   XZ=    -5.6056   YZ=    23.8553   ZZ=   221.4552
   Eigenvalues:   176.9404   180.3644   235.1922
     53  C    Isotropic =   211.1252   Anisotropy =    42.1526
   XX=   215.7393   YX=   -20.0206   ZX=     9.8380
   XY=   -19.0283   YY=   213.1430   ZY=    -9.5093
   XZ=    10.3817   YZ=    -8.2881   ZZ=   204.4933
   Eigenvalues:   194.8402   199.3085   239.2269
     54  O    Isotropic =    75.5535   Anisotropy =   404.6454
   XX=    31.7965   YX=    99.6433   ZX=   143.0409
   XY=    79.4859   YY=    25.9213   ZY=   139.8928
   XZ=   126.0363   YZ=   156.6441   ZZ=   168.9427
   Eigenvalues:   -68.0721   -50.5845   345.3171
     55  H    Isotropic =    26.8809   Anisotropy =    14.9183
   XX=    30.9805   YX=    -5.4492   ZX=    -3.2298
   XY=    -6.1521   YY=    25.3214   ZY=     2.3846
   XZ=    -5.8450   YZ=     2.9689   ZZ=    24.3409
   Eigenvalues:    21.6632    22.1531    36.8264
     56  H    Isotropic =    25.7469   Anisotropy =     5.8210
   XX=    25.2043   YX=    -3.2780   ZX=     1.7991
   XY=    -3.3758   YY=    24.2460   ZY=    -0.3025
   XZ=     1.8081   YZ=    -0.5465   ZZ=    27.7902
   Eigenvalues:    21.2437    26.3694    29.6275
     57  H    Isotropic =    26.4794   Anisotropy =     7.4108
   XX=    26.1708   YX=    -4.1327   ZX=    -1.9151
   XY=    -4.4306   YY=    23.5756   ZY=     1.0530
   XZ=    -1.5677   YZ=     0.5812   ZZ=    29.6917
   Eigenvalues:    20.3829    27.6352    31.4199
     58  H    Isotropic =    32.4002   Anisotropy =     7.8178
   XX=    31.2564   YX=    -3.7757   ZX=    -2.2428
   XY=    -3.7351   YY=    35.3753   ZY=    -1.8222
   XZ=    -1.7337   YZ=     0.1497   ZZ=    30.5690
   Eigenvalues:    27.5273    32.0613    37.6121
     59  H    Isotropic =    33.0557   Anisotropy =     8.4345
   XX=    31.5765   YX=    -0.1571   ZX=    -3.4794
   XY=     3.5559   YY=    34.4785   ZY=     4.5348
   XZ=    -1.8561   YZ=     5.0642   ZZ=    33.1121
   Eigenvalues:    26.8627    33.6257    38.6787
     60  H    Isotropic =    32.1411   Anisotropy =    13.6451
   XX=    37.4891   YX=     1.0263   ZX=     5.6082
   XY=     2.8913   YY=    26.0136   ZY=    -2.2191
   XZ=     5.5253   YZ=    -1.8999   ZZ=    32.9205
   Eigenvalues:    24.3707    30.8147    41.2378
     61  H    Isotropic =    32.3309   Anisotropy =    15.9423
   XX=    41.7233   YX=     4.1513   ZX=    -1.0599
   XY=     4.5284   YY=    26.3943   ZY=    -0.7954
   XZ=    -0.9000   YZ=    -0.7179   ZZ=    28.8751
   Eigenvalues:    25.1866    28.8470    42.9591
     62  H    Isotropic =    32.7695   Anisotropy =    12.9465
   XX=    27.9913   YX=     1.6750   ZX=    -0.7178
   XY=     2.7974   YY=    41.0082   ZY=    -0.8768
   XZ=     0.1092   YZ=     0.0103   ZZ=    29.3091
   Eigenvalues:    27.5871    29.3209    41.4005
     63  H    Isotropic =    32.7186   Anisotropy =    11.1784
   XX=    32.3305   YX=    -5.0447   ZX=     0.6875
   XY=    -5.2729   YY=    34.1056   ZY=    -4.0894
   XZ=     0.6323   YZ=    -4.5131   ZZ=    31.7198
   Eigenvalues:    26.6616    31.3234    40.1709
     64  H    Isotropic =    31.8775   Anisotropy =    13.9076
   XX=    32.1694   YX=     3.2738   ZX=     4.3389
   XY=     3.5405   YY=    25.8415   ZY=     2.4735
   XZ=     4.2225   YZ=     3.4084   ZZ=    37.6216
   Eigenvalues:    24.2642    30.2191    41.1493
     65  H    Isotropic =    32.5135   Anisotropy =    17.5293
   XX=    28.4293   YX=     1.3927   ZX=    -2.0424
   XY=     1.5694   YY=    27.6704   ZY=    -6.5083
   XZ=    -2.1925   YZ=    -5.8313   ZZ=    41.4408
   Eigenvalues:    25.1757    28.1651    44.1997
     66  H    Isotropic =    31.9500   Anisotropy =    12.7845
   XX=    28.8244   YX=    -3.5108   ZX=    -2.4673
   XY=    -3.2514   YY=    33.5446   ZY=     5.2402
   XZ=    -2.6618   YZ=     5.6363   ZZ=    33.4810
   Eigenvalues:    27.0334    28.3436    40.4731
     67  H    Isotropic =    32.6880   Anisotropy =    12.5787
   XX=    27.5551   YX=     2.5732   ZX=    -0.4506
   XY=     3.0354   YY=    39.2726   ZY=    -3.5280
   XZ=    -0.3250   YZ=    -3.2343   ZZ=    31.2363
   Eigenvalues:    26.8791    30.1111    41.0738
     68  H    Isotropic =    32.3392   Anisotropy =    15.4615
   XX=    39.5349   YX=     0.9442   ZX=    -5.5143
   XY=     0.9618   YY=    25.2087   ZY=    -1.4877
   XZ=    -5.5278   YZ=    -1.4257   ZZ=    32.2740
   Eigenvalues:    24.9183    29.4524    42.6468
     69  H    Isotropic =    33.5170   Anisotropy =    14.5734
   XX=    40.4384   YX=     4.9151   ZX=    -2.7340
   XY=     3.6830   YY=    28.8436   ZY=     0.5636
   XZ=    -5.6404   YZ=    -0.9806   ZZ=    31.2691
   Eigenvalues:    27.0274    30.2910    43.2326
     70  H    Isotropic =    32.5973   Anisotropy =    11.2486
   XX=    32.8088   YX=    -3.0446   ZX=     2.8818
   XY=    -2.5624   YY=    38.9649   ZY=     0.1692
   XZ=     1.3018   YZ=    -0.2486   ZZ=    26.0181
   Eigenvalues:    25.3839    32.3116    40.0963
     71  H    Isotropic =    32.9186   Anisotropy =    15.5833
   XX=    41.4284   YX=    -5.2264   ZX=    -0.4501
   XY=    -4.8793   YY=    27.9912   ZY=     0.6568
   XZ=    -2.5021   YZ=     0.8181   ZZ=    29.3362
   Eigenvalues:    26.2846    29.1637    43.3074
     72  H    Isotropic =    32.2467   Anisotropy =    13.7106
   XX=    34.9434   YX=     6.3805   ZX=     3.6175
   XY=     5.4372   YY=    30.6718   ZY=     4.5833
   XZ=     2.1743   YZ=     3.8846   ZZ=    31.1250
   Eigenvalues:    25.6586    29.6945    41.3871
     73  H    Isotropic =    30.4143   Anisotropy =     9.7870
   XX=    25.8056   YX=    -1.0413   ZX=     1.4467
   XY=    -0.8940   YY=    32.7853   ZY=     4.6113
   XZ=     1.3215   YZ=     3.8137   ZZ=    32.6521
   Eigenvalues:    25.0065    29.2974    36.9390
     74  H    Isotropic =    32.0645   Anisotropy =    15.6687
   XX=    39.4446   YX=    -4.0752   ZX=    -5.3847
   XY=    -4.4675   YY=    27.4378   ZY=    -0.5608
   XZ=    -4.9088   YZ=    -0.8835   ZZ=    29.3111
   Eigenvalues:    24.5733    29.1098    42.5103
     75  H    Isotropic =    31.2549   Anisotropy =    12.8628
   XX=    36.7109   YX=    -3.2629   ZX=     4.3067
   XY=    -4.1161   YY=    27.9846   ZY=    -2.4590
   XZ=     3.0301   YZ=    -2.7520   ZZ=    29.0691
   Eigenvalues:    25.8148    28.1198    39.8301
     76  H    Isotropic =    30.5186   Anisotropy =    12.0921
   XX=    28.1438   YX=    -4.3258   ZX=    -1.4016
   XY=    -4.4670   YY=    36.0634   ZY=     1.6840
   XZ=    -2.0447   YZ=     2.2585   ZZ=    27.3485
   Eigenvalues:    25.6751    27.3006    38.5799
     77  H    Isotropic =    30.5420   Anisotropy =    11.4399
   XX=    25.7057   YX=     0.0106   ZX=    -0.0669
   XY=    -0.4532   YY=    31.9151   ZY=    -5.4487
   XZ=     0.2341   YZ=    -4.7495   ZZ=    34.0053
   Eigenvalues:    25.6955    27.7619    38.1686
     78  H    Isotropic =    30.6275   Anisotropy =     7.9430
   XX=    34.3990   YX=     2.8724   ZX=     1.2029
   XY=     2.0227   YY=    31.6431   ZY=    -0.8286
   XZ=     1.9604   YZ=    -0.8213   ZZ=    25.8405
   Eigenvalues:    25.2914    30.6684    35.9229
     79  H    Isotropic =    31.8522   Anisotropy =    11.9956
   XX=    31.2460   YX=     2.0400   ZX=     5.2418
   XY=     3.9949   YY=    30.1666   ZY=     3.3696
   XZ=     4.8737   YZ=     2.7905   ZZ=    34.1440
   Eigenvalues:    27.1919    28.5155    39.8493
     80  H    Isotropic =    30.6746   Anisotropy =    14.0316
   XX=    26.6808   YX=    -1.2993   ZX=    -0.9555
   XY=    -0.6818   YY=    27.8574   ZY=    -5.3703
   XZ=    -1.1010   YZ=    -5.7022   ZZ=    37.4856
   Eigenvalues:    24.5144    27.4804    40.0290
     81  H    Isotropic =    30.8276   Anisotropy =    10.9644
   XX=    32.5078   YX=    -6.7954   ZX=     2.3902
   XY=    -5.9479   YY=    29.1378   ZY=    -0.2448
   XZ=     2.4851   YZ=    -0.9191   ZZ=    30.8372
   Eigenvalues:    24.0671    30.2785    38.1371
     82  H    Isotropic =    30.1176   Anisotropy =    11.1936
   XX=    28.2189   YX=     3.4091   ZX=     1.1965
   XY=    -0.1817   YY=    37.0780   ZY=    -2.1190
   XZ=     0.7975   YZ=    -1.5591   ZZ=    25.0559
   Eigenvalues:    24.3736    28.3991    37.5800
     83  H    Isotropic =    30.2500   Anisotropy =    11.2406
   XX=    27.3011   YX=    -2.9248   ZX=    -2.0443
   XY=    -1.8288   YY=    26.8475   ZY=     3.5618
   XZ=     1.3583   YZ=     3.1268   ZZ=    36.6013
   Eigenvalues:    24.2358    28.7704    37.7437
     84  H    Isotropic =    27.3541   Anisotropy =    15.8008
   XX=    33.2848   YX=     4.3076   ZX=     3.9218
   XY=     7.3975   YY=    26.0267   ZY=     2.3586
   XZ=     4.0639   YZ=     1.8555   ZZ=    22.7510
   Eigenvalues:    21.3983    22.7761    37.8880
     85  H    Isotropic =    25.7036   Anisotropy =     6.1047
   XX=    25.9963   YX=    -1.0124   ZX=     3.6289
   XY=    -0.7420   YY=    27.2576   ZY=    -1.5022
   XZ=     3.7133   YZ=    -1.4530   ZZ=    23.8569
   Eigenvalues:    21.0299    26.3074    29.7734
     86  H    Isotropic =    26.4781   Anisotropy =     7.1930
   XX=    26.6738   YX=     2.5670   ZX=     3.0396
   XY=     2.5515   YY=    29.8265   ZY=    -1.5833
   XZ=     3.4983   YZ=    -1.3125   ZZ=    22.9339
   Eigenvalues:    20.3399    27.8210    31.2734
     87  H    Isotropic =    32.1204   Anisotropy =     6.8981
   XX=    32.8822   YX=     2.4027   ZX=     3.3455
   XY=     2.3634   YY=    30.7959   ZY=     0.7101
   XZ=     3.6756   YZ=    -1.2437   ZZ=    32.6831
   Eigenvalues:    27.9400    31.7021    36.7192
     88  H    Isotropic =    33.1607   Anisotropy =     8.4841
   XX=    31.0469   YX=     3.4517   ZX=    -1.1038
   XY=     1.0446   YY=    36.9190   ZY=     4.0490
   XZ=    -4.2672   YZ=     3.1436   ZZ=    31.5162
   Eigenvalues:    26.8896    33.7757    38.8168
     89  H    Isotropic =    32.1476   Anisotropy =    13.6679
   XX=    38.0273   YX=    -5.6698   ZX=    -0.6669
   XY=    -6.0798   YY=    30.5015   ZY=    -1.4865
   XZ=    -2.5337   YZ=    -2.3242   ZZ=    27.9140
   Eigenvalues:    25.1348    30.0484    41.2596
     90  H    Isotropic =    32.2677   Anisotropy =    16.0069
   XX=    37.6232   YX=    -0.9214   ZX=    -7.6388
   XY=    -1.4583   YY=    28.0773   ZY=    -0.5064
   XZ=    -8.1683   YZ=    -0.8000   ZZ=    31.1026
   Eigenvalues:    25.2888    28.5754    42.9390
     91  H    Isotropic =    33.0222   Anisotropy =    11.7179
   XX=    29.3858   YX=     1.8249   ZX=     2.1572
   XY=     0.6631   YY=    30.2806   ZY=     4.1095
   XZ=     1.3548   YZ=     2.4755   ZZ=    39.4001
   Eigenvalues:    28.4752    29.7572    40.8341
     92  H    Isotropic =    31.0458   Anisotropy =    13.2299
   XX=    30.7444   YX=    -5.4429   ZX=    -2.1654
   XY=    -4.9893   YY=    36.8638   ZY=     0.0402
   XZ=    -2.1645   YZ=    -1.4865   ZZ=    25.5294
   Eigenvalues:    24.1340    29.1377    39.8658
     93  H    Isotropic =    32.3080   Anisotropy =    10.6091
   XX=    34.5802   YX=     1.0899   ZX=     5.1447
   XY=     0.8846   YY=    29.3473   ZY=    -3.2457
   XZ=     5.6494   YZ=    -2.5025   ZZ=    32.9966
   Eigenvalues:    25.9350    31.6083    39.3808
     94  H    Isotropic =    31.1411   Anisotropy =    13.0354
   XX=    29.3740   YX=     4.8232   ZX=     2.4692
   XY=     5.0474   YY=    35.9633   ZY=     3.3086
   XZ=     2.0060   YZ=     2.9068   ZZ=    28.0858
   Eigenvalues:    26.3088    27.2831    39.8313
     95  H    Isotropic =    32.3912   Anisotropy =    17.4589
   XX=    27.7886   YX=    -0.7078   ZX=    -0.6182
   XY=    -0.3165   YY=    35.5033   ZY=    -9.0082
   XZ=    -1.1753   YZ=    -9.5907   ZZ=    33.8818
   Eigenvalues:    24.9944    28.1488    44.0305
     96  H    Isotropic =    32.7630   Anisotropy =    12.3886
   XX=    26.9357   YX=    -0.3624   ZX=     0.4668
   XY=    -0.6416   YY=    30.3358   ZY=     0.2396
   XZ=     0.0226   YZ=    -0.3349   ZZ=    41.0176
   Eigenvalues:    26.8593    30.4077    41.0221
     97  H    Isotropic =    32.1573   Anisotropy =    15.5817
   XX=    37.9451   YX=     4.1440   ZX=    -4.7609
   XY=     4.1995   YY=    30.3009   ZY=    -4.1676
   XZ=    -5.0718   YZ=    -4.4301   ZZ=    28.2260
   Eigenvalues:    24.6558    29.2711    42.5451
     98  H    Isotropic =    33.0793   Anisotropy =    13.3955
   XX=    38.3945   YX=     1.4676   ZX=    -6.1138
   XY=     3.7131   YY=    31.2026   ZY=    -1.8773
   XZ=    -5.6460   YZ=     0.2816   ZZ=    29.6409
   Eigenvalues:    26.6381    30.5902    42.0097
     99  H    Isotropic =    31.4938   Anisotropy =    10.7503
   XX=    31.7260   YX=    -0.4440   ZX=     3.2618
   XY=    -0.3915   YY=    26.1899   ZY=     2.6865
   XZ=     2.8641   YZ=     3.7622   ZZ=    36.5654
   Eigenvalues:    25.0152    30.8054    38.6607
    100  H    Isotropic =    32.3709   Anisotropy =    16.1151
   XX=    41.8907   YX=     2.1829   ZX=     3.6973
   XY=     3.8062   YY=    28.6538   ZY=     0.2252
   XZ=     2.5483   YZ=     0.1318   ZZ=    26.5681
   Eigenvalues:    25.8843    28.1140    43.1143
    101  H    Isotropic =    31.3382   Anisotropy =    13.3473
   XX=    35.0597   YX=    -4.3833   ZX=    -5.6292
   XY=    -2.8896   YY=    31.2928   ZY=     2.9741
   XZ=    -4.4450   YZ=     3.9524   ZZ=    27.6620
   Eigenvalues:    24.6778    29.1004    40.2364
    102  H    Isotropic =    29.9162   Anisotropy =    10.7486
   XX=    26.2796   YX=     2.1115   ZX=     4.0683
   XY=     3.2029   YY=    34.2634   ZY=     2.9198
   XZ=     2.8871   YZ=     3.0185   ZZ=    29.2058
   Eigenvalues:    23.9304    28.7364    37.0820
    103  H    Isotropic =    31.8238   Anisotropy =    14.9637
   XX=    40.9851   YX=     3.3210   ZX=    -0.8269
   XY=     2.9612   YY=    26.4744   ZY=    -1.1914
   XZ=    -1.6203   YZ=    -1.7600   ZZ=    28.0118
   Eigenvalues:    25.2731    28.3986    41.7996
    104  H    Isotropic =    31.4314   Anisotropy =    13.0488
   XX=    37.4563   YX=    -3.0505   ZX=     3.9834
   XY=    -3.2154   YY=    29.5612   ZY=    -0.2933
   XZ=     4.7608   YZ=    -2.0116   ZZ=    27.2768
   Eigenvalues:    25.6568    28.5069    40.1306
    105  H    Isotropic =    30.6155   Anisotropy =     7.1649
   XX=    33.6105   YX=    -2.8480   ZX=    -1.0009
   XY=    -1.5138   YY=    27.9778   ZY=     3.7644
   XZ=    -0.7328   YZ=     3.5701   ZZ=    30.2581
   Eigenvalues:    25.0852    31.3691    35.3921
    106  H    Isotropic =    30.6266   Anisotropy =    11.3672
   XX=    27.3877   YX=    -0.2111   ZX=     3.8302
   XY=    -0.4532   YY=    28.0371   ZY=    -1.4834
   XZ=     4.3555   YZ=    -1.1242   ZZ=    36.4549
   Eigenvalues:    25.8016    27.8735    38.2047
    107  H    Isotropic =    30.6662   Anisotropy =    12.6211
   XX=    28.3153   YX=     4.4300   ZX=     1.8981
   XY=     5.0070   YY=    34.6938   ZY=     3.5217
   XZ=     2.3466   YZ=     4.0883   ZZ=    28.9895
   Eigenvalues:    25.8040    27.1143    39.0802
    108  H    Isotropic =    31.5080   Anisotropy =    11.9048
   XX=    34.4032   YX=     0.0326   ZX=     7.4273
   XY=     0.2611   YY=    31.0819   ZY=    -1.2343
   XZ=     6.9269   YZ=    -1.6912   ZZ=    29.0390
   Eigenvalues:    23.8303    31.2492    39.4446
    109  H    Isotropic =    30.7864   Anisotropy =    14.5022
   XX=    27.4513   YX=     0.1544   ZX=     1.3815
   XY=     0.7880   YY=    33.5078   ZY=    -7.8232
   XZ=     0.9176   YZ=    -8.0133   ZZ=    31.4001
   Eigenvalues:    24.0577    27.8470    40.4546
    110  H    Isotropic =    31.9568   Anisotropy =    12.2353
   XX=    31.8420   YX=    -6.1117   ZX=    -1.1602
   XY=    -6.0226   YY=    34.8624   ZY=     1.4311
   XZ=    -2.7718   YZ=     1.4799   ZZ=    29.1660
   Eigenvalues:    26.8707    28.8860    40.1137
 End of Minotr F.D. properties file   721 does not exist.
 End of Minotr F.D. properties file   722 does not exist.
 End of Minotr F.D. properties file   788 does not exist.
 Hyperfine terms turned off by default for NAtoms > 100.

 **********************************************************************

            Population analysis using the SCF Density.

 **********************************************************************

 Orbital symmetries:
       Occupied  (A) (A) (A) (A) (A) (A) (A) (A) (A) (A) (A) (A)
                 (A) (A) (A) (A) (A) (A) (A) (A) (A) (A) (A) (A)
                 (A) (A) (A) (A) (A) (A) (A) (A) (A) (A) (A) (A)
                 (A) (A) (A) (A) (A) (A) (A) (A) (A) (A) (A) (A)
                 (A) (A) (A) (A) (A) (A) (A) (A) (A) (A) (A) (A)
                 (A) (A) (A) (A) (A) (A) (A) (A) (A) (A) (A) (A)
                 (A) (A) (A) (A) (A) (A) (A) (A) (A) (A) (A) (A)
                 (A) (A) (A) (A) (A) (A) (A) (A) (A) (A) (A) (A)
                 (A) (A) (A) (A) (A) (A) (A) (A) (A) (A) (A) (A)
                 (A) (A) (A) (A) (A) (A) (A) (A) (A) (A) (A) (A)
                 (A) (A) (A) (A) (A) (A) (A) (A) (A) (A) (A) (A)
                 (A) (A) (A) (A) (A) (A) (A) (A) (A) (A) (A) (A)
                 (A) (A) (A) (A) (A) (A) (A) (A) (A) (A) (A) (A)
                 (A) (A) (A) (A) (A) (A) (A) (A) (A) (A) (A) (A)
                 (A) (A) (A) (A) (A) (A) (A) (A) (A) (A) (A) (A)
                 (A) (A) (A) (A) (A) (A) (A) (A) (A) (A) (A) (A)
                 (A) (A) (A) (A) (A)
       Virtual   (A) (A) (A) (A) (A) (A) (A) (A) (A) (A) (A) (A)
                 (A) (A) (A) (A) (A) (A) (A) (A) (A) (A) (A) (A)
                 (A) (A) (A) (A) (A) (A) (A) (A) (A) (A) (A) (A)
                 (A) (A) (A) (A) (A) (A) (A) (A) (A) (A) (A) (A)
                 (A) (A) (A) (A) (A) (A) (A) (A) (A) (A) (A) (A)
                 (A) (A) (A) (A) (A) (A) (A) (A) (A) (A) (A) (A)
                 (A) (A) (A) (A) (A) (A) (A) (A) (A) (A) (A) (A)
                 (A) (A) (A) (A) (A) (A) (A) (A) (A) (A) (A) (A)
                 (A) (A) (A) (A) (A) (A) (A) (A) (A) (A) (A) (A)
                 (A) (A) (A) (A) (A) (A) (A) (A) (A) (A) (A) (A)
                 (A) (A) (A) (A) (A) (A) (A) (A) (A)
 The electronic state is 1-A.
 Alpha  occ. eigenvalues --  -20.30082 -20.28530 -20.24174 -20.22537 -19.92163
 Alpha  occ. eigenvalues --  -15.48229 -15.33540 -15.33467 -15.30005 -11.15974
 Alpha  occ. eigenvalues --  -11.14778 -11.10233 -11.09709 -11.09373 -11.09255
 Alpha  occ. eigenvalues --  -11.09186 -11.08764 -11.08732 -11.08062 -11.07863
 Alpha  occ. eigenvalues --  -11.06742 -11.06677 -11.06543 -11.06472 -11.06286
 Alpha  occ. eigenvalues --  -11.06054 -11.05918 -11.05739 -11.05687 -11.05625
 Alpha  occ. eigenvalues --  -11.05230 -11.05071 -11.04810 -11.04721 -11.04674
 Alpha  occ. eigenvalues --  -11.04208 -11.03779 -11.03724 -11.03711 -11.03639
 Alpha  occ. eigenvalues --  -11.03610 -11.03586 -11.03571 -11.03194 -11.02351
 Alpha  occ. eigenvalues --  -11.02343 -11.02229 -11.02097 -11.02024 -11.01948
 Alpha  occ. eigenvalues --  -11.01914 -11.01848 -11.01593 -11.01527  -1.37380
 Alpha  occ. eigenvalues --   -1.35772  -1.29610  -1.27070  -1.25521  -1.21533
 Alpha  occ. eigenvalues --   -1.20901  -1.19207  -1.10565  -1.09433  -1.08815
 Alpha  occ. eigenvalues --   -1.07642  -1.05848  -1.04716  -1.02829  -1.00598
 Alpha  occ. eigenvalues --   -0.98967  -0.98792  -0.98154  -0.97504  -0.96591
 Alpha  occ. eigenvalues --   -0.96336  -0.95241  -0.94212  -0.94174  -0.92470
 Alpha  occ. eigenvalues --   -0.91677  -0.91136  -0.89579  -0.89302  -0.87905
 Alpha  occ. eigenvalues --   -0.86449  -0.84727  -0.82728  -0.81262  -0.81229
 Alpha  occ. eigenvalues --   -0.80473  -0.79431  -0.78323  -0.77533  -0.76939
 Alpha  occ. eigenvalues --   -0.76899  -0.74479  -0.74050  -0.73045  -0.72672
 Alpha  occ. eigenvalues --   -0.71685  -0.70265  -0.69266  -0.68375  -0.65187
 Alpha  occ. eigenvalues --   -0.65114  -0.64791  -0.64342  -0.63416  -0.62955
 Alpha  occ. eigenvalues --   -0.62559  -0.62120  -0.61597  -0.61411  -0.61072
 Alpha  occ. eigenvalues --   -0.59955  -0.59731  -0.59155  -0.58548  -0.58321
 Alpha  occ. eigenvalues --   -0.58125  -0.57840  -0.57811  -0.57654  -0.57299
 Alpha  occ. eigenvalues --   -0.56849  -0.56660  -0.56110  -0.55693  -0.55426
 Alpha  occ. eigenvalues --   -0.55062  -0.54666  -0.54587  -0.54344  -0.54295
 Alpha  occ. eigenvalues --   -0.53987  -0.53463  -0.53261  -0.53126  -0.52286
 Alpha  occ. eigenvalues --   -0.51616  -0.51394  -0.50928  -0.50623  -0.50346
 Alpha  occ. eigenvalues --   -0.50184  -0.49264  -0.49234  -0.48964  -0.48697
 Alpha  occ. eigenvalues --   -0.48284  -0.48124  -0.47600  -0.47327  -0.46832
 Alpha  occ. eigenvalues --   -0.46561  -0.46386  -0.45974  -0.45329  -0.45168
 Alpha  occ. eigenvalues --   -0.44876  -0.44765  -0.44549  -0.43829  -0.43639
 Alpha  occ. eigenvalues --   -0.43372  -0.43298  -0.42661  -0.42629  -0.42351
 Alpha  occ. eigenvalues --   -0.42119  -0.41402  -0.41043  -0.40786  -0.40473
 Alpha  occ. eigenvalues --   -0.39974  -0.39811  -0.38781  -0.38300  -0.37696
 Alpha  occ. eigenvalues --   -0.37385  -0.37239  -0.35814  -0.35616  -0.33994
 Alpha  occ. eigenvalues --   -0.33210  -0.32799  -0.31768  -0.31226  -0.30573
 Alpha  occ. eigenvalues --   -0.27433  -0.27200  -0.27025  -0.21222  -0.20401
 Alpha  occ. eigenvalues --   -0.16101  -0.15576
 Alpha virt. eigenvalues --    0.26601   0.27331   0.27516   0.28161   0.31075
 Alpha virt. eigenvalues --    0.32818   0.45579   0.48323   0.48584   0.48852
 Alpha virt. eigenvalues --    0.49260   0.49899   0.50791   0.51407   0.52217
 Alpha virt. eigenvalues --    0.54106   0.55132   0.55305   0.55628   0.56149
 Alpha virt. eigenvalues --    0.57138   0.57398   0.58187   0.58302   0.58681
 Alpha virt. eigenvalues --    0.59175   0.59833   0.60114   0.60748   0.60917
 Alpha virt. eigenvalues --    0.61547   0.61601   0.62275   0.62420   0.63230
 Alpha virt. eigenvalues --    0.63399   0.63857   0.64352   0.64458   0.64989
 Alpha virt. eigenvalues --    0.65379   0.65453   0.65597   0.65772   0.65917
 Alpha virt. eigenvalues --    0.66587   0.66742   0.66767   0.67218   0.67391
 Alpha virt. eigenvalues --    0.67431   0.68052   0.68268   0.68514   0.68832
 Alpha virt. eigenvalues --    0.69103   0.69309   0.69820   0.69925   0.70064
 Alpha virt. eigenvalues --    0.70224   0.70396   0.70682   0.70811   0.71198
 Alpha virt. eigenvalues --    0.71381   0.71492   0.72040   0.72121   0.72606
 Alpha virt. eigenvalues --    0.72745   0.73058   0.73122   0.73519   0.73724
 Alpha virt. eigenvalues --    0.73887   0.74096   0.74387   0.74519   0.74915
 Alpha virt. eigenvalues --    0.75171   0.75292   0.75821   0.75968   0.76078
 Alpha virt. eigenvalues --    0.76440   0.76704   0.76845   0.77035   0.77479
 Alpha virt. eigenvalues --    0.77905   0.78386   0.78614   0.78993   0.79079
 Alpha virt. eigenvalues --    0.79565   0.79800   0.80207   0.80375   0.80763
 Alpha virt. eigenvalues --    0.81102   0.81318   0.81415   0.81540   0.81904
 Alpha virt. eigenvalues --    0.82149   0.83165   0.84142   0.84308   0.85145
 Alpha virt. eigenvalues --    0.85722   0.85789   0.86353   0.87180   0.87580
 Alpha virt. eigenvalues --    0.88088   0.88945   0.90620   0.91321   0.94194
 Alpha virt. eigenvalues --    0.94694   0.95716   0.97726   1.01793   1.03306
 Alpha virt. eigenvalues --    1.09951   1.11301   1.15587   1.16023
          Condensed to atoms (all electrons):
 Mulliken charges:
               1
     1  C   -0.077817
     2  C   -0.000573
     3  C   -0.065295
     4  C   -0.091280
     5  C    0.089278
     6  C   -0.014034
     7  N   -0.283264
     8  C    0.015409
     9  C    0.129454
    10  C    0.040652
    11  C   -0.114742
    12  C   -0.107974
    13  C    0.041741
    14  N   -0.293416
    15  C   -0.012109
    16  C   -0.095724
    17  C   -0.100403
    18  C   -0.099063
    19  C   -0.014022
    20  C   -0.104406
    21  C   -0.064066
    22  C    0.317852
    23  O   -0.273239
    24  O   -0.256417
    25  C   -0.055526
    26  C   -0.078861
    27  C   -0.110579
    28  C   -0.000157
    29  C   -0.079873
    30  C   -0.063072
    31  C   -0.090707
    32  C    0.095387
    33  C   -0.013869
    34  N   -0.281401
    35  C    0.015306
    36  C    0.135001
    37  C    0.039619
    38  C   -0.115997
    39  C   -0.105428
    40  C    0.040139
    41  N   -0.081157
    42  C   -0.003240
    43  C   -0.097199
    44  C   -0.099159
    45  C   -0.097909
    46  C   -0.005163
    47  C   -0.098508
    48  C   -0.058466
    49  C    0.327419
    50  O   -0.275738
    51  O   -0.255718
    52  C   -0.054014
    53  C   -0.077036
    54  O   -0.461352
    55  H    0.060678
    56  H    0.055023
    57  H    0.058669
    58  H    0.042821
    59  H    0.053382
    60  H    0.049467
    61  H    0.048681
    62  H    0.049173
    63  H    0.039501
    64  H    0.062581
    65  H    0.050218
    66  H    0.056143
    67  H    0.046773
    68  H    0.051402
    69  H    0.053167
    70  H    0.065968
    71  H    0.040677
    72  H    0.063469
    73  H    0.080315
    74  H    0.048393
    75  H    0.063131
    76  H    0.072166
    77  H    0.075831
    78  H    0.073422
    79  H    0.054818
    80  H    0.070781
    81  H    0.076862
    82  H    0.060422
    83  H    0.059408
    84  H    0.056661
    85  H    0.055814
    86  H    0.060214
    87  H    0.054354
    88  H    0.054377
    89  H    0.049388
    90  H    0.053151
    91  H    0.046884
    92  H    0.084953
    93  H    0.056082
    94  H    0.080902
    95  H    0.057941
    96  H    0.046761
    97  H    0.058433
    98  H    0.067079
    99  H    0.095665
   100  H    0.057443
   101  H    0.090209
   102  H    0.102200
   103  H    0.044732
   104  H    0.061850
   105  H    0.078368
   106  H    0.067319
   107  H    0.074302
   108  H    0.072494
   109  H    0.075237
   110  H    0.054568
 Sum of Mulliken charges =  -0.00000
 Mulliken charges with hydrogens summed into heavy atoms:
               1
     1  C   -0.017139
     2  C   -0.000573
     3  C   -0.010272
     4  C   -0.032611
     5  C    0.089278
     6  C   -0.014034
     7  N   -0.283264
     8  C    0.015409
     9  C    0.129454
    10  C    0.083473
    11  C   -0.011893
    12  C   -0.010120
    13  C    0.041741
    14  N   -0.293416
    15  C    0.089973
    16  C    0.010637
    17  C   -0.002229
    18  C    0.020072
    19  C    0.090124
    20  C    0.024302
    21  C   -0.000935
    22  C    0.317852
    23  O   -0.273239
    24  O   -0.256417
    25  C    0.165892
    26  C    0.123601
    27  C    0.009250
    28  C   -0.000157
    29  C   -0.023211
    30  C   -0.007258
    31  C   -0.030493
    32  C    0.095387
    33  C   -0.013869
    34  N   -0.281401
    35  C    0.015306
    36  C    0.135001
    37  C    0.093974
    38  C   -0.012233
    39  C   -0.005393
    40  C    0.040139
    41  N   -0.081157
    42  C    0.137794
    43  C    0.041644
    44  C    0.006035
    45  C    0.064834
    46  C    0.142489
    47  C    0.048423
    48  C    0.003384
    49  C    0.327419
    50  O   -0.275738
    51  O   -0.255718
    52  C    0.165974
    53  C    0.125262
    54  O   -0.461352
 Electronic spatial extent (au):  <R**2>=          37737.7272
 Charge=             -0.0000 electrons
 Dipole moment (field-independent basis, Debye):
    X=             -1.1481    Y=             -1.7696    Z=             -4.0441  Tot=              4.5612
 Quadrupole moment (field-independent basis, Debye-Ang):
   XX=           -284.7785   YY=           -299.2959   ZZ=           -298.1866
   XY=             -5.3834   XZ=             -4.3490   YZ=            -10.3906
 Traceless Quadrupole moment (field-independent basis, Debye-Ang):
   XX=              9.3085   YY=             -5.2089   ZZ=             -4.0996
   XY=             -5.3834   XZ=             -4.3490   YZ=            -10.3906
 Octapole moment (field-independent basis, Debye-Ang**2):
  XXX=              2.4078  YYY=             59.1122  ZZZ=             18.3241  XYY=             -0.7010
  XXY=            -30.5653  XXZ=            -33.6560  XZZ=             19.6983  YZZ=             39.1924
  YYZ=            -10.7633  XYZ=             16.9770
 Hexadecapole moment (field-independent basis, Debye-Ang**3):
 XXXX=         -31407.4712 YYYY=          -7627.9520 ZZZZ=          -6981.4804 XXXY=           -376.3871
 XXXZ=            321.2113 YYYX=           -243.1856 YYYZ=           -155.2901 ZZZX=            270.7349
 ZZZY=             59.5682 XXYY=          -6732.9305 XXZZ=          -6522.9407 YYZZ=          -2440.8304
 XXYZ=           -142.1649 YYXZ=            169.2788 ZZXY=            133.1604
 N-N= 8.106299519120D+03 E-N=-2.158941709143D+04  KE= 2.279057806154D+03
 ******************************Gaussian NBO Version 3.1******************************
             N A T U R A L   A T O M I C   O R B I T A L   A N D
          N A T U R A L   B O N D   O R B I T A L   A N A L Y S I S
 ******************************Gaussian NBO Version 3.1******************************
       /RESON  / : Allow strongly delocalized NBO set
       /NLMO   / : Form Natural Localized Molecular Orbitals
       /NMR /    : Analyze NMR Sheilding Tensor 

 Analyzing the SCF density

 Job title: Pleiokomenine_C_2                                               

 Storage needed:    355564 in NPA,    438187 in NBO,   2133784 in NLMO ( 104796000 available)
 GSVD:  LWork=     -108884 too small for GESVD, short by      536270 words or      536270 for optimal perf.


 NATURAL POPULATIONS:  Natural atomic orbital occupancies 
                                                          
   NAO  Atom  No  lang   Type(AO)    Occupancy      Energy
 ----------------------------------------------------------
     1    C    1  S      Cor( 1S)     1.99992     -10.94625
     2    C    1  S      Val( 2S)     1.07853      -0.17815
     3    C    1  px     Val( 2p)     0.99425       0.08260
     4    C    1  py     Val( 2p)     1.00535       0.07773
     5    C    1  pz     Val( 2p)     0.98276       0.15453
 
     6    C    2  S      Cor( 1S)     1.99990     -10.95660
     7    C    2  S      Val( 2S)     1.07961      -0.18524
     8    C    2  px     Val( 2p)     0.96890       0.09832
     9    C    2  py     Val( 2p)     0.97689       0.09001
    10    C    2  pz     Val( 2p)     0.96048       0.17686
 
    11    C    3  S      Cor( 1S)     1.99994     -10.94752
    12    C    3  S      Val( 2S)     1.08401      -0.18326
    13    C    3  px     Val( 2p)     0.99101       0.08597
    14    C    3  py     Val( 2p)     0.98973       0.08485
    15    C    3  pz     Val( 2p)     0.97318       0.15879
 
    16    C    4  S      Cor( 1S)     1.99993     -10.94118
    17    C    4  S      Val( 2S)     1.07198      -0.17383
    18    C    4  px     Val( 2p)     1.02028       0.07525
    19    C    4  py     Val( 2p)     1.01912       0.07530
    20    C    4  pz     Val( 2p)     0.97717       0.16009
 
    21    C    5  S      Cor( 1S)     1.99985     -10.98814
    22    C    5  S      Val( 2S)     1.06135      -0.18648
    23    C    5  px     Val( 2p)     0.93199       0.09297
    24    C    5  py     Val( 2p)     0.90946       0.09861
    25    C    5  pz     Val( 2p)     0.98454       0.15062
 
    26    C    6  S      Cor( 1S)     1.99990     -10.94847
    27    C    6  S      Val( 2S)     1.08545      -0.19121
    28    C    6  px     Val( 2p)     0.99813       0.08855
    29    C    6  py     Val( 2p)     0.98381       0.10474
    30    C    6  pz     Val( 2p)     0.95537       0.14528
 
    31    N    7  S      Cor( 1S)     1.99998     -15.26819
    32    N    7  S      Val( 2S)     1.40787      -0.59413
    33    N    7  px     Val( 2p)     1.21251      -0.03872
    34    N    7  py     Val( 2p)     1.58848      -0.18510
    35    N    7  pz     Val( 2p)     1.06323       0.02175
 
    36    C    8  S      Cor( 1S)     1.99996     -11.00474
    37    C    8  S      Val( 2S)     1.10719      -0.22990
    38    C    8  px     Val( 2p)     0.94321       0.10485
    39    C    8  py     Val( 2p)     0.98126       0.07280
    40    C    8  pz     Val( 2p)     0.95279       0.12002
 
    41    C    9  S      Cor( 1S)     1.99996     -11.04836
    42    C    9  S      Val( 2S)     1.11288      -0.25472
    43    C    9  px     Val( 2p)     0.93925       0.09459
    44    C    9  py     Val( 2p)     0.93217       0.08374
    45    C    9  pz     Val( 2p)     0.84247       0.12377
 
    46    C   10  S      Cor( 1S)     1.99994     -11.01182
    47    C   10  S      Val( 2S)     1.09214      -0.21149
    48    C   10  px     Val( 2p)     0.96435       0.08395
    49    C   10  py     Val( 2p)     0.95787       0.11125
    50    C   10  pz     Val( 2p)     0.91324       0.09970
 
    51    C   11  S      Cor( 1S)     1.99994     -10.97756
    52    C   11  S      Val( 2S)     1.10437      -0.21252
    53    C   11  px     Val( 2p)     1.00350       0.08252
    54    C   11  py     Val( 2p)     0.99001       0.08658
    55    C   11  pz     Val( 2p)     0.98658       0.09108
 
    56    C   12  S      Cor( 1S)     1.99996     -10.97401
    57    C   12  S      Val( 2S)     1.08865      -0.19423
    58    C   12  px     Val( 2p)     1.00984       0.09050
    59    C   12  py     Val( 2p)     1.00294       0.09210
    60    C   12  pz     Val( 2p)     0.97684       0.09152
 
    61    C   13  S      Cor( 1S)     1.99998     -11.00109
    62    C   13  S      Val( 2S)     1.10025      -0.21816
    63    C   13  px     Val( 2p)     0.94616       0.11180
    64    C   13  py     Val( 2p)     0.94496       0.11310
    65    C   13  pz     Val( 2p)     0.94515       0.11564
 
    66    N   14  S      Cor( 1S)     1.99999     -15.23059
    67    N   14  S      Val( 2S)     1.41433      -0.57419
    68    N   14  px     Val( 2p)     1.25868      -0.03656
    69    N   14  py     Val( 2p)     1.55361      -0.15076
    70    N   14  pz     Val( 2p)     1.05672       0.04838
 
    71    C   15  S      Cor( 1S)     1.99994     -11.00613
    72    C   15  S      Val( 2S)     1.06968      -0.18646
    73    C   15  px     Val( 2p)     0.99226       0.08080
    74    C   15  py     Val( 2p)     0.98609       0.09771
    75    C   15  pz     Val( 2p)     0.90946       0.11072
 
    76    C   16  S      Cor( 1S)     1.99996     -10.97505
    77    C   16  S      Val( 2S)     1.08441      -0.18852
    78    C   16  px     Val( 2p)     0.96650       0.10335
    79    C   16  py     Val( 2p)     1.01846       0.09362
    80    C   16  pz     Val( 2p)     0.98954       0.09830
 
    81    C   17  S      Cor( 1S)     1.99995     -10.97688
    82    C   17  S      Val( 2S)     1.09044      -0.19509
    83    C   17  px     Val( 2p)     1.00016       0.09429
    84    C   17  py     Val( 2p)     1.00371       0.09279
    85    C   17  pz     Val( 2p)     0.97020       0.09867
 
    86    C   18  S      Cor( 1S)     1.99994     -10.97615
    87    C   18  S      Val( 2S)     1.09355      -0.19697
    88    C   18  px     Val( 2p)     0.98907       0.09297
    89    C   18  py     Val( 2p)     1.00130       0.09476
    90    C   18  pz     Val( 2p)     0.98178       0.08916
 
    91    C   19  S      Cor( 1S)     1.99995     -11.00376
    92    C   19  S      Val( 2S)     1.07139      -0.18736
    93    C   19  px     Val( 2p)     0.91110       0.12278
    94    C   19  py     Val( 2p)     1.00222       0.08565
    95    C   19  pz     Val( 2p)     0.97576       0.07566
 
    96    C   20  S      Cor( 1S)     1.99992     -10.97799
    97    C   20  S      Val( 2S)     1.10189      -0.20636
    98    C   20  px     Val( 2p)     1.01591       0.08990
    99    C   20  py     Val( 2p)     0.98373       0.09014
   100    C   20  pz     Val( 2p)     0.96541       0.10053
 
   101    C   21  S      Cor( 1S)     1.99994     -11.00607
   102    C   21  S      Val( 2S)     1.11369      -0.23793
   103    C   21  px     Val( 2p)     1.00606       0.06976
   104    C   21  py     Val( 2p)     0.96486       0.08582
   105    C   21  pz     Val( 2p)     0.99573       0.07257
 
   106    C   22  S      Cor( 1S)     1.99991     -11.10691
   107    C   22  S      Val( 2S)     1.05597      -0.25651
   108    C   22  px     Val( 2p)     0.87152      -0.00102
   109    C   22  py     Val( 2p)     0.90436       0.09577
   110    C   22  pz     Val( 2p)     0.76825       0.19445
 
   111    O   23  S      Cor( 1S)     1.99999     -20.09392
   112    O   23  S      Val( 2S)     1.80825      -1.05277
   113    O   23  px     Val( 2p)     1.29391      -0.13446
   114    O   23  py     Val( 2p)     1.69074      -0.25240
   115    O   23  pz     Val( 2p)     1.51421      -0.17605
 
   116    O   24  S      Cor( 1S)     1.99999     -20.21032
   117    O   24  S      Val( 2S)     1.72991      -1.02326
   118    O   24  px     Val( 2p)     1.79039      -0.34417
   119    O   24  py     Val( 2p)     1.30079      -0.13040
   120    O   24  pz     Val( 2p)     1.44705      -0.19637
 
   121    C   25  S      Cor( 1S)     1.99984     -11.04265
   122    C   25  S      Val( 2S)     1.07671      -0.22414
   123    C   25  px     Val( 2p)     1.01360       0.04903
   124    C   25  py     Val( 2p)     0.83061       0.08645
   125    C   25  pz     Val( 2p)     1.04435       0.03649
 
   126    C   26  S      Cor( 1S)     1.99992     -11.01443
   127    C   26  S      Val( 2S)     1.06527      -0.19492
   128    C   26  px     Val( 2p)     0.96920       0.07668
   129    C   26  py     Val( 2p)     1.03176       0.06125
   130    C   26  pz     Val( 2p)     0.95036       0.07911
 
   131    C   27  S      Cor( 1S)     1.99995     -10.98426
   132    C   27  S      Val( 2S)     1.08413      -0.19035
   133    C   27  px     Val( 2p)     0.97756       0.10004
   134    C   27  py     Val( 2p)     1.00691       0.08505
   135    C   27  pz     Val( 2p)     1.01890       0.08364
 
   136    C   28  S      Cor( 1S)     1.99990     -10.95692
   137    C   28  S      Val( 2S)     1.08002      -0.18565
   138    C   28  px     Val( 2p)     0.96153       0.11364
   139    C   28  py     Val( 2p)     0.96188       0.16882
   140    C   28  pz     Val( 2p)     0.98209       0.08303
 
   141    C   29  S      Cor( 1S)     1.99992     -10.94751
   142    C   29  S      Val( 2S)     1.07742      -0.17920
   143    C   29  px     Val( 2p)     0.99044       0.09741
   144    C   29  py     Val( 2p)     0.98573       0.14359
   145    C   29  pz     Val( 2p)     1.01052       0.06742
 
   146    C   30  S      Cor( 1S)     1.99994     -10.94744
   147    C   30  S      Val( 2S)     1.08452      -0.18306
   148    C   30  px     Val( 2p)     0.98400       0.10485
   149    C   30  py     Val( 2p)     0.97637       0.14988
   150    C   30  pz     Val( 2p)     0.99007       0.07812
 
   151    C   31  S      Cor( 1S)     1.99993     -10.94041
   152    C   31  S      Val( 2S)     1.07141      -0.17228
   153    C   31  px     Val( 2p)     1.01373       0.09305
   154    C   31  py     Val( 2p)     0.97907       0.15298
   155    C   31  pz     Val( 2p)     1.02500       0.06738
 
   156    C   32  S      Cor( 1S)     1.99985     -10.98987
   157    C   32  S      Val( 2S)     1.05979      -0.18542
   158    C   32  px     Val( 2p)     0.91603       0.11322
   159    C   32  py     Val( 2p)     0.97314       0.15281
   160    C   32  pz     Val( 2p)     0.93182       0.07835
 
   161    C   33  S      Cor( 1S)     1.99990     -10.95088
   162    C   33  S      Val( 2S)     1.08595      -0.19502
   163    C   33  px     Val( 2p)     0.99270       0.10495
   164    C   33  py     Val( 2p)     0.94668       0.14171
   165    C   33  pz     Val( 2p)     0.99694       0.08474
 
   166    N   34  S      Cor( 1S)     1.99998     -15.26673
   167    N   34  S      Val( 2S)     1.39251      -0.58569
   168    N   34  px     Val( 2p)     1.16579      -0.01652
   169    N   34  py     Val( 2p)     1.14687      -0.01223
   170    N   34  pz     Val( 2p)     1.56628      -0.17382
 
   171    C   35  S      Cor( 1S)     1.99996     -11.01331
   172    C   35  S      Val( 2S)     1.10396      -0.23698
   173    C   35  px     Val( 2p)     0.95376       0.09414
   174    C   35  py     Val( 2p)     0.95372       0.11238
   175    C   35  pz     Val( 2p)     0.97730       0.06603
 
   176    C   36  S      Cor( 1S)     1.99996     -11.04997
   177    C   36  S      Val( 2S)     1.11442      -0.25625
   178    C   36  px     Val( 2p)     0.93692       0.09633
   179    C   36  py     Val( 2p)     0.86678       0.11807
   180    C   36  pz     Val( 2p)     0.90313       0.09028
 
   181    C   37  S      Cor( 1S)     1.99991     -11.03378
   182    C   37  S      Val( 2S)     1.10915      -0.25060
   183    C   37  px     Val( 2p)     0.98159       0.06216
   184    C   37  py     Val( 2p)     0.87019       0.08449
   185    C   37  pz     Val( 2p)     0.97039       0.07059
 
   186    C   38  S      Cor( 1S)     1.99993     -10.97913
   187    C   38  S      Val( 2S)     1.10883      -0.21794
   188    C   38  px     Val( 2p)     1.01263       0.07907
   189    C   38  py     Val( 2p)     0.99034       0.08975
   190    C   38  pz     Val( 2p)     0.97278       0.08657
 
   191    C   39  S      Cor( 1S)     1.99996     -10.98047
   192    C   39  S      Val( 2S)     1.09077      -0.20202
   193    C   39  px     Val( 2p)     1.01910       0.08230
   194    C   39  py     Val( 2p)     0.97719       0.08459
   195    C   39  pz     Val( 2p)     0.98754       0.09047
 
   196    C   40  S      Cor( 1S)     1.99998     -11.01306
   197    C   40  S      Val( 2S)     1.09918      -0.22767
   198    C   40  px     Val( 2p)     0.93259       0.10781
   199    C   40  py     Val( 2p)     0.94928       0.10273
   200    C   40  pz     Val( 2p)     0.95999       0.09733
 
   201    N   41  S      Cor( 1S)     1.99999     -15.41824
   202    N   41  S      Val( 2S)     1.39291      -0.65820
   203    N   41  px     Val( 2p)     1.21201      -0.12783
   204    N   41  py     Val( 2p)     1.15739      -0.10071
   205    N   41  pz     Val( 2p)     1.20444      -0.11179
 
   206    C   42  S      Cor( 1S)     1.99992     -11.03890
   207    C   42  S      Val( 2S)     1.09126      -0.23583
   208    C   42  px     Val( 2p)     1.00370       0.05186
   209    C   42  py     Val( 2p)     0.94826       0.06280
   210    C   42  pz     Val( 2p)     0.90685       0.07974
 
   211    C   43  S      Cor( 1S)     1.99995     -10.99246
   212    C   43  S      Val( 2S)     1.08731      -0.20646
   213    C   43  px     Val( 2p)     0.95580       0.09289
   214    C   43  py     Val( 2p)     0.99707       0.07798
   215    C   43  pz     Val( 2p)     1.02329       0.07872
 
   216    C   44  S      Cor( 1S)     1.99994     -10.98831
   217    C   44  S      Val( 2S)     1.09174      -0.20682
   218    C   44  px     Val( 2p)     1.00729       0.08188
   219    C   44  py     Val( 2p)     0.97205       0.09032
   220    C   44  pz     Val( 2p)     0.99143       0.08386
 
   221    C   45  S      Cor( 1S)     1.99993     -10.98612
   222    C   45  S      Val( 2S)     1.09875      -0.20865
   223    C   45  px     Val( 2p)     0.99062       0.08585
   224    C   45  py     Val( 2p)     0.97361       0.08345
   225    C   45  pz     Val( 2p)     1.00391       0.08697
 
   226    C   46  S      Cor( 1S)     1.99993     -11.03254
   227    C   46  S      Val( 2S)     1.09466      -0.23385
   228    C   46  px     Val( 2p)     0.88318       0.08948
   229    C   46  py     Val( 2p)     0.99138       0.05135
   230    C   46  pz     Val( 2p)     0.98538       0.05917
 
   231    C   47  S      Cor( 1S)     1.99991     -10.97430
   232    C   47  S      Val( 2S)     1.10309      -0.20181
   233    C   47  px     Val( 2p)     0.98765       0.10130
   234    C   47  py     Val( 2p)     1.01505       0.09663
   235    C   47  pz     Val( 2p)     0.95481       0.10341
 
   236    C   48  S      Cor( 1S)     1.99994     -11.00322
[...]
   89      -0.5535        0.3876      -0.9411        -1.1247       0.5713
   98      -0.0948        0.2384      -0.3332        -1.0055       0.9107
   99      -0.6059        0.4966      -1.1025        -1.4734       0.8675
  102       1.7499       -0.8947       2.6446         0.8479       0.9020
  103       0.0550        1.2838      -1.2288        -0.9289       0.9839
  105       0.6921        2.4142      -1.7221        -0.4806       1.1727
  106      25.7597       -0.1515      25.9112         0.5288      25.2309
  107       1.6957        3.6764      -1.9807        -0.1387       1.8344
  109       0.1022       -0.1522       0.2545        -0.9059       1.0082
  195       0.2216       -1.0218       1.2434         1.1442      -0.9226
 Sum       29.0221        6.2768      22.7453        -3.5369      32.5590

 Contributions to Isotropic shielding for atom   95 (    32.3912 ppm):
                         Standard Origin              Atomic Origin
 NLMO      Total    Paramagnetic  Diamagnetic   Paramagnetic  Diamagnetic
   89      -0.3030        0.3008      -0.6038        -1.0374       0.7344
  102       1.6316        0.0014       1.6302         0.6631       0.9685
  103       0.3006        1.3436      -1.0430        -0.5796       0.8801
  104       0.0901        1.1288      -1.0388        -0.8593       0.9494
  105       0.6224        2.8846      -2.2621        -0.4855       1.1079
  106       1.9072        3.6765      -1.7693         0.0632       1.8441
  107      26.3421       -0.1813      26.5234         0.5249      25.8172
  108       0.0509       -0.2622       0.3131        -1.0745       1.1253
 Sum       30.6419        8.8922      21.7497        -2.7851      33.4270

 Contributions to Isotropic shielding for atom   96 (    32.7630 ppm):
                         Standard Origin              Atomic Origin
 NLMO      Total    Paramagnetic  Diamagnetic   Paramagnetic  Diamagnetic
   90      -0.1452        1.1547      -1.2999        -0.8181       0.6729
   94      -0.2047        0.6550      -0.8596        -1.1459       0.9412
   97       1.8944       -1.1033       2.9978         0.9408       0.9536
  105       1.3660       -0.1603       1.5263         0.2312       1.1348
  107       0.0406        0.0373       0.0033        -0.9809       1.0216
  108      26.5401        0.2196      26.3205         0.4711      26.0690
  109       1.4802        3.9212      -2.4411        -0.3603       1.8405
 Sum       30.9715        4.7243      26.2473        -1.6621      32.6336

 Contributions to Isotropic shielding for atom   97 (    32.1573 ppm):
                         Standard Origin              Atomic Origin
 NLMO      Total    Paramagnetic  Diamagnetic   Paramagnetic  Diamagnetic
   89      -0.4275        0.3657      -0.7932        -1.1476       0.7201
   94      -0.1887        1.4337      -1.6224        -0.7170       0.5283
   97       0.9327        1.7924      -0.8597        -0.0360       0.9687
   98      -0.3563        1.7730      -2.1293        -1.3426       0.9863
  105       0.6529        2.8833      -2.2304        -0.4264       1.0793
  106       0.0720        0.8256      -0.7536        -1.0402       1.1122
  107       0.3261        1.0213      -0.6952        -0.5363       0.8624
  108       1.9230        3.0078      -1.0848         0.1958       1.7272
  109      26.4730       -0.4051      26.8780         0.7248      25.7481
 Sum       29.4071       12.6977      16.7094        -4.3255      33.7325

 Contributions to Isotropic shielding for atom   98 (    33.0793 ppm):
                         Standard Origin              Atomic Origin
 NLMO      Total    Paramagnetic  Diamagnetic   Paramagnetic  Diamagnetic
   71      -0.0593       -1.0693       1.0100        -1.0812       1.0218
   80       0.2887       -0.9498       1.2385        -0.8115       1.1002
   81       0.2942       -0.8629       1.1571        -0.5032       0.7975
   85       1.0415        0.5479       0.4936         0.4125       0.6290
  110       1.3903       -0.8966       2.2869         0.5783       0.8120
  111      25.9358        0.5631      25.3727         0.4557      25.4801
  112       1.9168        0.7609       1.1559        -0.0110       1.9277
  121       0.0414       -1.2248       1.2662        -0.7602       0.8016
  191      -0.3247        0.6791      -1.0038         0.3528      -0.6775
 Sum       30.5247       -2.4523      32.9770        -1.3676      31.8923

 Contributions to Isotropic shielding for atom   99 (    31.4938 ppm):
                         Standard Origin              Atomic Origin
 NLMO      Total    Paramagnetic  Diamagnetic   Paramagnetic  Diamagnetic
   85       0.2506        1.9942      -1.7437        -0.5552       0.8057
   87       0.0265       -1.0958       1.1222        -0.8100       0.8364
  110       1.0084        0.8338       0.1746         0.2836       0.7249
  111       1.9934        0.1400       1.8534         0.0738       1.9196
  112      25.4331        0.0652      25.3679         0.5421      24.8910
  114       0.0559       -0.0952       0.1511        -0.9453       1.0012
  115       0.0607       -1.0097       1.0704        -0.5101       0.5708
  118       0.7694       -1.3924       2.1618        -0.0604       0.8298
  120       1.4202       -0.7119       2.1321         0.5673       0.8529
  121      -0.2312       -3.4535       3.2223        -1.2679       1.0367
  123       0.2802       -1.2320       1.5122        -0.4797       0.7599
  191      -0.7248        1.5880      -2.3128         0.2408      -0.9657
  195      -0.1153        0.9806      -1.0959         0.9076      -1.0229
 Sum       30.2270       -3.3887      33.6156        -2.0135      32.2405

 Contributions to Isotropic shielding for atom  100 (    32.3709 ppm):
                         Standard Origin              Atomic Origin
 NLMO      Total    Paramagnetic  Diamagnetic   Paramagnetic  Diamagnetic
   71       0.1626       -0.7132       0.8758        -0.9734       1.1360
   84       0.1635       -0.9028       1.0663        -0.6531       0.8166
   89       0.9908       -0.6766       1.6674         0.0871       0.9037
   90      -0.0756       -1.0050       0.9293        -0.7979       0.7223
   99       0.5853       -0.5449       1.1302        -0.1213       0.7066
  100       0.4600        1.1451      -0.6851         0.0065       0.4535
  103       0.1482       -0.9508       1.0991        -0.5836       0.7318
  104      -0.0075       -1.3963       1.3887        -0.8097       0.8021
  110       1.0927       -0.7370       1.8297         0.2595       0.8332
  113      26.2623        0.6378      25.6245         0.5896      25.6727
  114       1.6750       -0.3149       1.9899        -0.1667       1.8417
 Sum       31.4573       -5.4585      36.9159        -3.1629      34.6202

 Contributions to Isotropic shielding for atom  101 (    31.3382 ppm):
                         Standard Origin              Atomic Origin
 NLMO      Total    Paramagnetic  Diamagnetic   Paramagnetic  Diamagnetic
  100      -0.0725        1.7035      -1.7760        -0.8384       0.7659
  101       0.1377       -1.0916       1.2293        -0.8798       1.0175
  103      -0.0520       -1.3932       1.3411        -0.8771       0.8250
  112       0.1526       -0.3604       0.5130        -0.8798       1.0325
  113       1.9657       -0.4662       2.4319         0.2781       1.6876
  114      25.6927        0.5858      25.1068         0.8363      24.8564
  195       0.0343        1.0555      -1.0211         0.8556      -0.8213
 Sum       27.8585        0.0335      27.8250        -1.5051      29.3636

 Contributions to Isotropic shielding for atom  102 (    29.9163 ppm):
                         Standard Origin              Atomic Origin
 NLMO      Total    Paramagnetic  Diamagnetic   Paramagnetic  Diamagnetic
   89      -0.6712        0.4086      -1.0797        -1.5700       0.8988
   97      -0.1916        0.7697      -0.9613        -1.0160       0.8244
   98       1.6018       -0.7562       2.3581         0.6960       0.9059
  115       1.2466       -0.0132       1.2597         0.3750       0.8716
  116      25.2394        0.0419      25.1975         0.6043      24.6351
  117       0.9966        3.8752      -2.8786        -0.9233       1.9199
  118      -0.4045        0.3449      -0.7494        -1.3540       0.9495
  119       0.2945        1.2078      -0.9133        -0.2200       0.5144
  122       0.7766       -1.0979       1.8745        -0.4297       1.2064
  193      -1.1237        0.7064      -1.8301         0.2890      -1.4127
 Sum       27.7645        5.4872      22.2773        -3.5487      31.3132

 Contributions to Isotropic shielding for atom  103 (    31.8238 ppm):
                         Standard Origin              Atomic Origin
 NLMO      Total    Paramagnetic  Diamagnetic   Paramagnetic  Diamagnetic
   86      -0.0934        0.3571      -0.4505        -1.0005       0.9071
   94      -0.3733        1.4295      -1.8028        -1.3388       0.9655
   97      -0.2288        1.5567      -1.7855        -0.8371       0.6084
   98       0.9300        1.8515      -0.9215        -0.0496       0.9796
  109      -0.0387       -1.0726       1.0339        -0.8321       0.7934
  115       0.6629        3.1437      -2.4808        -0.4444       1.1073
  116       1.8648        3.8370      -1.9722        -0.1792       2.0440
  117      26.9592       -0.8209      27.7801         0.8627      26.0965
  119      -0.2308        0.5182      -0.7489        -1.3715       1.1407
  122       0.2284       -0.4003       0.6287        -0.8885       1.1169
 Sum       29.6803       10.3999      19.2804        -6.0790      35.7594

 Contributions to Isotropic shielding for atom  104 (    31.4314 ppm):
                         Standard Origin              Atomic Origin
 NLMO      Total    Paramagnetic  Diamagnetic   Paramagnetic  Diamagnetic
   81      -0.6617        1.3047      -1.9664        -1.3584       0.6967
   82      -0.1170        0.3822      -0.4992        -1.0873       0.9704
   86      -0.4844        1.7438      -2.2283        -1.6026       1.1182
   87       1.4990        1.2960       0.2030         0.5785       0.9205
   93      -0.0719       -1.5793       1.5074        -0.8393       0.7674
  115       0.7104        4.4634      -3.7529        -0.5589       1.2693
  117      -0.0815       -0.5988       0.5174        -1.2297       1.1482
  118       0.7080        4.6236      -3.9156        -0.4053       1.1134
  119      26.2648       -0.9528      27.2176         0.5627      25.7020
  122      -0.3509       -0.0741      -0.2767        -1.6885       1.3377
  127      -0.2279       -1.9779       1.7500        -0.7051       0.4772
 Sum       27.1870        8.6308      18.5562        -8.3340      35.5210

 Contributions to Isotropic shielding for atom  105 (    30.6155 ppm):
                         Standard Origin              Atomic Origin
 NLMO      Total    Paramagnetic  Diamagnetic   Paramagnetic  Diamagnetic
  120      -0.5483        0.2228      -0.7711        -1.4535       0.9052
  121      -0.1516        0.5814      -0.7330        -1.6941       1.5425
  122      -0.1570        0.2608      -0.4178        -1.0487       0.8917
  123       2.6478       -5.1478       7.7956         1.2472       1.4006
  124      25.7911        1.0548      24.7362         0.6995      25.0916
  125       1.5530       -0.0308       1.5838        -0.3113       1.8642
  126       1.5623        0.4225       1.1398        -0.4740       2.0363
  193       0.5705        1.0737      -0.5031         0.6131      -0.0426
  194       0.1524       -0.9911       1.1435        -0.4082       0.5606
 Sum       31.4202       -2.5537      33.9739        -2.8299      34.2500

 Contributions to Isotropic shielding for atom  106 (    30.6266 ppm):
                         Standard Origin              Atomic Origin
 NLMO      Total    Paramagnetic  Diamagnetic   Paramagnetic  Diamagnetic
  120      -1.0977        0.5812      -1.6790        -1.9863       0.8885
  121      -0.3021        1.6295      -1.9315        -1.8625       1.5604
  122      -0.9205        0.3744      -1.2949        -1.6930       0.7725
  123       0.8314        1.0826      -0.2512        -0.6739       1.5053
  124       1.9166       -0.7739       2.6904         0.0447       1.8719
  125      26.3772        0.5502      25.8270         1.0083      25.3690
  126       1.1876        3.7730      -2.5854        -0.8438       2.0315
  191       0.4265       -1.2788       1.7053         1.1934      -0.7669
  193       1.3416       -0.4947       1.8364         1.3899      -0.0483
 Sum       29.7606        5.4435      24.3172        -3.4233      33.1839

 Contributions to Isotropic shielding for atom  107 (    30.6662 ppm):
                         Standard Origin              Atomic Origin
 NLMO      Total    Paramagnetic  Diamagnetic   Paramagnetic  Diamagnetic
  120      -0.4887        0.0683      -0.5570        -1.1164       0.6277
  121       0.0151        0.6741      -0.6590        -1.0284       1.0435
  123       0.5113        3.0082      -2.4969        -1.5752       2.0865
  124       1.7809        0.1903       1.5905        -0.2200       2.0009
  125       0.8680        3.5511      -2.6831        -1.1060       1.9740
  126      26.1641        0.3975      25.7666         0.8808      25.2833
  193       0.5950       -0.9550       1.5501         1.0631      -0.4681
 Sum       29.4457        6.9346      22.5111        -3.1021      32.5478

 Contributions to Isotropic shielding for atom  108 (    31.5080 ppm):
                         Standard Origin              Atomic Origin
 NLMO      Total    Paramagnetic  Diamagnetic   Paramagnetic  Diamagnetic
   76      -0.5359        0.0624      -0.5983        -1.3754       0.8395
   81      -0.6137        1.6308      -2.2445        -1.3385       0.7248
   82       1.2313       -0.7974       2.0287         0.0325       1.1987
   86      -0.2554        0.8257      -1.0811        -0.9990       0.7435
   87      -0.2061        0.9453      -1.1514        -1.1039       0.8978
  119      -0.1741       -1.4092       1.2351        -0.7037       0.5296
  121      -0.1294        0.1915      -0.3208        -1.1965       1.0671
  127      26.0179        0.1426      25.8753         0.5976      25.4204
  128       1.7883        2.6295      -0.8413        -0.2021       1.9904
  129       1.1229        2.8003      -1.6774        -0.6893       1.8122
  190       1.3322        0.1039       1.2284         1.3118       0.0205
 Sum       29.5780        7.1254      22.4526        -5.6666      35.2446

 Contributions to Isotropic shielding for atom  109 (    30.7864 ppm):
                         Standard Origin              Atomic Origin
 NLMO      Total    Paramagnetic  Diamagnetic   Paramagnetic  Diamagnetic
   75      -0.5445        0.6326      -1.1771        -1.2534       0.7090
   76      -0.8114        0.1741      -0.9855        -2.1715       1.3601
   79      -0.3249        0.9693      -1.2942        -0.9542       0.6293
   82       1.8843       -1.9631       3.8473         0.6827       1.2015
  127       1.6248        2.6739      -1.0491        -0.3448       1.9696
  128      25.8588        0.3227      25.5361         0.5668      25.2921
  129       1.3840        2.1070      -0.7230        -0.4151       1.7991
 Sum       29.0711        4.9165      24.1546        -3.8895      32.9607

 Contributions to Isotropic shielding for atom  110 (    31.9568 ppm):
                         Standard Origin              Atomic Origin
 NLMO      Total    Paramagnetic  Diamagnetic   Paramagnetic  Diamagnetic
   75      -0.3565        0.8192      -1.1758        -0.9518       0.5952
   76      -1.1100        0.3590      -1.4691        -2.2802       1.1702
   79      -0.4291        1.1515      -1.5806        -0.9522       0.5231
   81      -0.4260        0.8014      -1.2274        -0.6736       0.2477
   82       1.5042       -1.4863       2.9905         0.7246       0.7796
   86      -0.1337        0.2795      -0.4131        -1.2004       1.0667
  127       1.7816        3.5289      -1.7473        -0.1219       1.9035
  128       1.8806        2.4519      -0.5713        -0.0214       1.9019
  129      26.7320        0.5206      26.2115         1.0025      25.7295
 Sum       29.4430        8.4256      21.0174        -4.4745      33.9175
 
 1\1\GINC-PCSN02\SP\RHF\STO-3G\C45H56N4O5\ABENIDD\30-May-2024\0\\# nmr=
 giao hf/sto-3g pop=nbo geom=connectivity\\Pleiokomenine_C_2\\0,1\C,0,0
 .,0.,0.\C,0,1.4031,0.,0.\C,0,2.0978,1.2286,0.\C,0,1.415,2.4518,0.0143\
 C,0,0.0319,2.4448,0.0213\C,0,-0.6608,1.2172,0.0337\N,0,-0.853,3.56,0.0
 099\C,0,-2.1322,1.513,0.1922\C,0,-2.1215,2.9422,-0.4614\C,0,-3.2038,0.
 6631,-0.4905\C,0,-2.0452,2.7885,-2.0492\C,0,-3.2182,1.974,-2.5981\C,0,
 -4.0975,1.4987,-1.4358\N,0,-4.0655,0.2296,0.6084\C,0,-5.0044,-0.7952,0
 .2128\C,0,-5.9689,-0.1577,-0.802\C,0,-5.2506,0.5966,-1.937\C,0,-2.4181
 ,1.3176,1.7065\C,0,-3.2225,0.0163,1.7598\C,0,-4.6182,2.7859,-0.7032\C,
 0,-3.4432,3.7065,-0.2348\C,0,-3.68,4.291,1.1484\O,0,-4.6018,3.9906,1.8
 963\O,0,-2.7804,5.2793,1.4169\C,0,-2.9316,5.8748,2.705\C,0,-0.3516,4.7
 902,-0.5833\C,0,2.1693,-1.3087,0.0252\C,0,1.7857,-2.2451,1.1563\C,0,1.
 5811,-1.7584,2.4567\C,0,1.636,-3.6267,0.9012\C,0,1.2669,-4.5232,1.9133
 \C,0,1.0535,-4.035,3.1876\C,0,1.1916,-2.6516,3.4408\N,0,0.7167,-4.7533
 ,4.3656\C,0,0.7348,-2.4006,4.861\C,0,1.1377,-3.8083,5.4257\C,0,1.3656,
 -1.3532,5.7605\C,0,2.7456,-3.8985,5.5365\C,0,3.3329,-2.714,6.3099\C,0,
 2.183,-1.9086,6.936\N,0,0.218,-0.4915,6.2634\C,0,0.7986,0.7731,6.8034\
 C,0,1.6895,0.4197,8.0119\C,0,2.7201,-0.7022,7.7445\C,0,-0.7298,-1.8995
 ,4.6842\C,0,-0.6521,-0.4101,5.064\C,0,1.3776,-2.9509,7.7858\C,0,0.685,
 -4.0408,6.8854\C,0,-0.8094,-4.2003,7.1241\O,0,-1.6276,-4.5687,6.2914\O
 ,0,-1.1018,-4.0406,8.4487\C,0,-2.4949,-4.11,8.7471\C,0,1.0233,-6.168,4
 .4321\O,0,-0.552,-1.0521,7.2524\H,0,-0.5559,-0.9331,0.0253\H,0,3.186,1
 .2391,-0.0008\H,0,1.9744,3.3801,0.0222\H,0,-2.7552,-0.1937,-1.0115\H,0
 ,-1.1091,2.3204,-2.3781\H,0,-2.0464,3.7789,-2.5238\H,0,-3.7998,2.5833,
 -3.3009\H,0,-2.834,1.1215,-3.1723\H,0,-4.4978,-1.664,-0.224\H,0,-5.583
 9,-1.1469,1.0738\H,0,-6.6166,-0.9317,-1.2297\H,0,-6.6292,0.544,-0.276\
 H,0,-4.8448,-0.1519,-2.6307\H,0,-5.9797,1.185,-2.5067\H,0,-1.5246,1.24
 02,2.3369\H,0,-3.0219,2.1224,2.1229\H,0,-2.5797,-0.8644,1.6521\H,0,-3.
 7896,-0.0609,2.6922\H,0,-5.2709,2.5118,0.1318\H,0,-5.2545,3.3595,-1.39
 1\H,0,-3.4644,4.5885,-0.8934\H,0,-3.8937,6.3914,2.7763\H,0,-2.1331,6.6
 108,2.8331\H,0,-2.8353,5.1205,3.4923\H,0,0.0786,4.6232,-1.5772\H,0,0.4
 139,5.2389,0.0586\H,0,-1.1542,5.5269,-0.6859\H,0,2.0091,-1.7992,-0.943
 5\H,0,3.2471,-1.1188,0.105\H,0,1.6721,-0.6987,2.6725\H,0,1.7979,-4.015
 2,-0.1025\H,0,1.1519,-5.5767,1.6865\H,0,1.9873,-0.6796,5.1519\H,0,3.24
 35,-3.958,4.561\H,0,3.0229,-4.8339,6.0421\H,0,4.0301,-3.0753,7.0757\H,
 0,3.9213,-2.0861,5.6286\H,0,-0.0413,1.4126,7.0946\H,0,1.3635,1.2534,5.
 9978\H,0,1.0531,0.1064,8.849\H,0,2.2138,1.3211,8.3494\H,0,3.5496,-0.24
 66,7.1866\H,0,3.145,-1.042,8.6967\H,0,-1.1455,-2.0072,3.6755\H,0,-1.42
 2,-2.4035,5.3575\H,0,-0.1417,0.2038,4.3152\H,0,-1.6148,0.0259,5.3455\H
 ,0,0.6878,-2.4631,8.4771\H,0,2.0825,-3.469,8.4528\H,0,1.0793,-5.0148,7
 .2137\H,0,-3.0572,-3.3849,8.1498\H,0,-2.8691,-5.1246,8.58\H,0,-2.6278,
 -3.8616,9.8037\H,0,0.7528,-6.5723,5.4124\H,0,0.4423,-6.7247,3.6891\H,0
 ,2.0875,-6.365,4.2633\\Version=ES64L-G16RevB.01\State=1-A\HF=-2300.197
 0901\RMSD=3.987e-09\Dipole=1.4164057,0.624042,-0.9080858\Quadrupole=-2
 .5557432,6.1237827,-3.5680395,-1.9668571,9.4454153,-0.8815669\PG=C01 [
 X(C45H56N4O5)]\\@


 IF I HAVE SEEN FARTHER, IT IS BY STANDING ON THE
 SHOULDERS OF GIANTS. -- SIR ISAAC NEWTON
 Job cpu time:       0 days  0 hours 11 minutes 19.0 seconds.
 Elapsed time:       0 days  0 hours  1 minutes 54.1 seconds.
 File lengths (MBytes):  RWF=     67 Int=      0 D2E=      0 Chk=     10 Scr=      1
 Normal termination of Gaussian 16 at Thu May 30 09:31:33 2024.
