 Entering Gaussian System, Link 0=g16
 Input=2_pleiokomenine_2a_c_14.gjf
 Output=2_pleiokomenine_2a_c_14.log
 Initial command:
 /opt/gaussian/g16/l1.exe "/data/abenidd/Elvis/pleiokomenine_C/NMR_HF/2a/2_pleiokomenine_2a_c_14/Gau-27158.inp" -scrdir="/data/abenidd/Elvis/pleiokomenine_C/NMR_HF/2a/2_pleiokomenine_2a_c_14/"
 Entering Link 1 = /opt/gaussian/g16/l1.exe PID=     27160.
  
 Copyright (c) 1988-2017, Gaussian, Inc.  All Rights Reserved.
  
 This is part of the Gaussian(R) 16 program.  It is based on
 the Gaussian(R) 09 system (copyright 2009, Gaussian, Inc.),
 the Gaussian(R) 03 system (copyright 2003, Gaussian, Inc.),
 the Gaussian(R) 98 system (copyright 1998, Gaussian, Inc.),
 the Gaussian(R) 94 system (copyright 1995, Gaussian, Inc.),
 the Gaussian 92(TM) system (copyright 1992, Gaussian, Inc.),
 the Gaussian 90(TM) system (copyright 1990, Gaussian, Inc.),
 the Gaussian 88(TM) system (copyright 1988, Gaussian, Inc.),
 the Gaussian 86(TM) system (copyright 1986, Carnegie Mellon
 University), and the Gaussian 82(TM) system (copyright 1983,
 Carnegie Mellon University). Gaussian is a federally registered
 trademark of Gaussian, Inc.
  
 This software contains proprietary and confidential information,
 including trade secrets, belonging to Gaussian, Inc.
  
 This software is provided under written license and may be
 used, copied, transmitted, or stored only in accord with that
 written license.
  
 The following legend is applicable only to US Government
 contracts under FAR:
  
                    RESTRICTED RIGHTS LEGEND
  
 Use, reproduction and disclosure by the US Government is
 subject to restrictions as set forth in subparagraphs (a)
 and (c) of the Commercial Computer Software - Restricted
 Rights clause in FAR 52.227-19.
  
 Gaussian, Inc.
 340 Quinnipiac St., Bldg. 40, Wallingford CT 06492
  
  
 ---------------------------------------------------------------
 Warning -- This program may not be used in any manner that
 competes with the business of Gaussian, Inc. or will provide
 assistance to any competitor of Gaussian, Inc.  The licensee
 of this program is prohibited from giving any competitor of
 Gaussian, Inc. access to this program.  By using this program,
 the user acknowledges that Gaussian, Inc. is engaged in the
 business of creating and licensing software in the field of
 computational chemistry and represents and warrants to the
 licensee that it is not a competitor of Gaussian, Inc. and that
 it will not use this program in any manner prohibited above.
 ---------------------------------------------------------------
  

 Cite this work as:
 Gaussian 16, Revision B.01,
 M. J. Frisch, G. W. Trucks, H. B. Schlegel, G. E. Scuseria, 
 M. A. Robb, J. R. Cheeseman, G. Scalmani, V. Barone, 
 G. A. Petersson, H. Nakatsuji, X. Li, M. Caricato, A. V. Marenich, 
 J. Bloino, B. G. Janesko, R. Gomperts, B. Mennucci, H. P. Hratchian, 
 J. V. Ortiz, A. F. Izmaylov, J. L. Sonnenberg, D. Williams-Young, 
 F. Ding, F. Lipparini, F. Egidi, J. Goings, B. Peng, A. Petrone, 
 T. Henderson, D. Ranasinghe, V. G. Zakrzewski, J. Gao, N. Rega, 
 G. Zheng, W. Liang, M. Hada, M. Ehara, K. Toyota, R. Fukuda, 
 J. Hasegawa, M. Ishida, T. Nakajima, Y. Honda, O. Kitao, H. Nakai, 
 T. Vreven, K. Throssell, J. A. Montgomery, Jr., J. E. Peralta, 
 F. Ogliaro, M. J. Bearpark, J. J. Heyd, E. N. Brothers, K. N. Kudin, 
 V. N. Staroverov, T. A. Keith, R. Kobayashi, J. Normand, 
 K. Raghavachari, A. P. Rendell, J. C. Burant, S. S. Iyengar, 
 J. Tomasi, M. Cossi, J. M. Millam, M. Klene, C. Adamo, R. Cammi, 
 J. W. Ochterski, R. L. Martin, K. Morokuma, O. Farkas, 
 J. B. Foresman, and D. J. Fox, Gaussian, Inc., Wallingford CT, 2016.
 
 ******************************************
 Gaussian 16:  ES64L-G16RevB.01 20-Dec-2017
                30-May-2024 
 ******************************************
 %nprocshared=8
 Will use up to    8 processors via shared memory.
 ----------------------------------------------
 # nmr=giao hf/sto-3g pop=nbo geom=connectivity
 ----------------------------------------------
 1/38=1,57=2,172=1/1;
 2/12=2,17=6,18=5,40=1/2;
 3/6=3,11=9,25=1,30=1/1,2,3,8;
 4//1;
 5/5=2,38=5/2;
 8/6=1,10=90,11=11/1;
 10/13=100,45=16/2;
 6/7=2,8=2,9=2,10=2,28=1,40=1,64=1/1,7;
 99/9=1/99;
 -----------------
 Pleiokomenine_C_2
 -----------------
 Symbolic Z-matrix:
 Charge =  0 Multiplicity = 1
 C                     0.        0.        0. 
 C                     1.4013    0.        0. 
 C                     2.0876    1.2315    0. 
 C                     1.3954    2.4516   -0.0206 
 C                     0.0121    2.4392   -0.0742 
 C                    -0.669     1.2118   -0.0527 
 N                    -0.8769    3.543    -0.1789 
 C                    -2.1535    1.4723   -0.0579 
 C                    -2.1067    2.9059   -0.719 
 C                    -3.0931    0.5711   -0.8751 
 C                    -1.9551    2.7421   -2.2958 
 C                    -3.1542    2.0002   -2.8981 
 C                    -4.0355    1.4615   -1.7548 
 N                    -3.7506   -0.2838    0.1184 
 C                    -4.9445   -0.9734   -0.3526 
 C                    -5.914    -0.1203   -1.1691 
 C                    -5.1939    0.6138   -2.2991 
 C                    -2.629     1.3064    1.4043 
 C                    -3.9173    0.496     1.3381 
 C                    -4.5779    2.7316   -1.014 
 C                    -3.4308    3.6696   -0.5448 
 C                    -3.7036    4.271     0.8224 
 O                    -4.5378    3.8579    1.6186 
 O                    -2.946     5.3862    1.0184 
 C                    -3.1196    5.995     2.2976 
 C                    -0.3403    4.7622   -0.7646 
 C                     2.1601   -1.3098   -0.0382 
 C                     2.0799   -1.9879   -1.3912 
 C                     0.9629   -2.7747   -1.7134 
 C                     3.0753   -1.7569   -2.3663 
 C                     2.9746   -2.3031   -3.6518 
 C                     1.8597   -3.0602   -3.9627 
 C                     0.8538   -3.274    -3.0003 
 N                     1.6129   -3.7457   -5.2037 
 C                    -0.3254   -3.9127   -3.6929 
 C                     0.4877   -4.644    -4.8085 
 C                    -1.2033   -4.9513   -3.0121 
 C                     1.2962   -5.8951   -4.1307 
 C                     0.3915   -6.792    -3.286 
 C                    -1.0641   -6.3871   -3.5411 
 N                    -2.6307   -4.4545   -3.1713 
 C                    -3.4874   -5.1947   -2.1967 
 C                    -3.4614   -6.6918   -2.5621 
 C                    -2.0433   -7.2802   -2.7415 
 C                    -1.2947   -2.7178   -3.9367 
 C                    -2.4682   -2.9914   -2.981 
 C                    -1.2328   -6.4793   -5.0935 
 C                    -0.3828   -5.3888   -5.8562 
 C                    -1.2567   -4.5922   -6.8195 
 O                    -1.1821   -3.3937   -7.0498 
 O                    -2.0572   -5.4437   -7.5331 
 C                    -2.952    -4.7859   -8.4287 
 C                     1.4948   -2.8137   -6.3153 
 O                    -3.1724   -4.6206   -4.4222 
 H                    -0.5657   -0.9248    0.036 
 H                     3.1754    1.248     0.0069 
 H                     1.9514    3.3819   -0.0186 
 H                    -2.5192   -0.0917   -1.5369 
 H                    -1.8676    3.7239   -2.7786 
 H                    -1.036     2.2055   -2.5626 
 H                    -3.7274    2.6767   -3.5445 
 H                    -2.7979    1.1875   -3.5435 
 H                    -4.6152   -1.8096   -0.9825 
 H                    -5.475    -1.437     0.4881 
 H                    -6.6899   -0.7661   -1.597 
 H                    -6.4306    0.5916   -0.5164 
 H                    -4.8109   -0.1265   -3.0137 
 H                    -5.9082    1.238    -2.8489 
 H                    -1.9087    0.7193    1.9924 
 H                    -2.7422    2.2412    1.9516 
 H                    -4.0118   -0.1543    2.2144 
 H                    -4.7953    1.1438    1.3181 
 H                    -5.2446    2.4579   -0.196 
 H                    -5.2164    3.3018   -1.7041 
 H                    -3.4408    4.5354   -1.2249 
 H                    -2.4303    6.841     2.3663 
 H                    -2.8785    5.2873    3.0972 
 H                    -4.1417    6.3706    2.4058 
 H                     0.1606    4.5745   -1.7211 
 H                     0.3752    5.2311   -0.0806 
 H                    -1.137     5.4909   -0.9419 
 H                     3.2118   -1.1494    0.2319 
 H                     1.765    -1.9803    0.7364 
 H                     0.1705   -2.9281   -0.9894 
 H                     3.9376   -1.1383   -2.1263 
 H                     3.7607   -2.1443   -4.3813 
 H                    -1.0123   -4.9308   -1.9285 
 H                     2.1393   -5.5742   -3.5057 
 H                     1.7662   -6.4885   -4.9281 
 H                     0.5665   -7.8453   -3.5371 
 H                     0.6473   -6.681    -2.2245 
 H                    -4.4964   -4.7769   -2.2771 
 H                    -3.0916   -5.0063   -1.1934 
 H                    -4.0172   -6.8451   -3.4955 
 H                    -3.9956   -7.2606   -1.7923 
 H                    -2.1157   -8.2727   -3.2024 
 H                    -1.6328   -7.4405   -1.7352 
 H                    -0.8765   -1.7236   -3.7395 
 H                    -1.6699   -2.6924   -4.9568 
 H                    -3.396    -2.4867   -3.2648 
 H                    -2.2234   -2.81     -1.9297 
 H                    -2.2878   -6.4732   -5.3774 
 H                    -0.8828   -7.4677   -5.4262 
 H                     0.303    -5.9172   -6.5366 
 H                    -3.5757   -4.0631   -7.893 
 H                    -2.3938   -4.2973   -9.2331 
 H                    -3.6055   -5.5429   -8.8711 
 H                     0.7046   -2.0729   -6.1555 
 H                     1.308    -3.3599   -7.2444 
 H                     2.4364   -2.2741   -6.4704 
 
 Stoichiometry    C45H56N4O5
 Framework group  C1[X(C45H56N4O5)]
 Deg. of freedom   324
 Full point group                 C1      NOp   1
 Largest Abelian subgroup         C1      NOp   1
 Largest concise Abelian subgroup C1      NOp   1
                         Standard orientation:                         
 ---------------------------------------------------------------------
 Center     Atomic      Atomic             Coordinates (Angstroms)
 Number     Number       Type             X           Y           Z
 ---------------------------------------------------------------------
      1          6           0        1.911953    1.819973   -1.282071
      2          6           0        1.653441    3.197184   -1.292217
      3          6           0        2.557250    4.069852   -0.652546
      4          6           0        3.695206    3.584018    0.008690
      5          6           0        3.912385    2.217651    0.057882
      6          6           0        3.022132    1.352699   -0.597999
      7          7           0        4.945971    1.512074    0.731319
      8          6           0        3.511278   -0.064834   -0.446459
      9          6           0        4.361283    0.152012    0.866903
     10          6           0        2.509196   -1.207263   -0.215127
     11          6           0        3.383223    0.131932    2.123529
     12          6           0        2.673112   -1.220451    2.257028
     13          6           0        2.974469   -2.069806    1.007307
     14          7           0        2.427456   -1.901104   -1.504353
     15          6           0        1.827847   -3.228077   -1.455385
     16          6           0        2.299497   -4.117536   -0.306128
     17          6           0        2.198230   -3.393964    1.035712
     18          6           0        4.214134   -0.426512   -1.775682
     19          6           0        3.739590   -1.829062   -2.134162
     20          6           0        4.519222   -2.331454    1.044902
     21          6           0        5.334378   -1.010669    1.127834
     22          6           0        6.592869   -1.058260    0.279735
     23          8           0        6.811656   -1.872529   -0.608844
     24          8           0        7.487278   -0.116492    0.691016
     25          6           0        8.688285   -0.073362   -0.078950
     26          6           0        5.565104    2.182625    1.864663
     27          6           0        0.397826    3.728716   -1.950790
     28          6           0       -0.852398    3.418319   -1.152384
     29          6           0       -1.470798    2.164751   -1.281633
     30          6           0       -1.345534    4.345522   -0.207867
     31          6           0       -2.446809    4.042311    0.602221
     32          6           0       -3.034919    2.796609    0.478875
     33          6           0       -2.532003    1.860704   -0.445741
     34          7           0       -4.202851    2.331422    1.179188
     35          6           0       -3.205997    0.536312   -0.181428
     36          6           0       -4.543122    1.116785    0.380393
     37          6           0       -3.562019   -0.432003   -1.298792
     38          6           0       -5.389602    1.771414   -0.857859
     39          6           0       -5.537606    0.814396   -2.040501
     40          6           0       -5.061825   -0.574116   -1.600663
     41          7           0       -2.965098   -1.769332   -0.892761
     42          6           0       -2.923863   -2.642202   -2.104402
     43          6           0       -4.369720   -2.890627   -2.576932
     44          6           0       -5.216160   -1.607824   -2.742350
     45          6           0       -2.153095   -0.246115    0.658793
     46          6           0       -1.672750   -1.356967   -0.290204
     47          6           0       -5.908305   -0.895260   -0.325029
     48          6           0       -5.545940    0.046573    0.889485
     49          6           0       -5.214895   -0.771308    2.133551
     50          8           0       -4.344599   -0.525979    2.956596
     51          8           0       -6.147634   -1.759654    2.301623
     52          6           0       -5.893962   -2.614283    3.415502
     53          6           0       -3.974412    2.264713    2.615013
     54          8           0       -3.649139   -2.441667    0.090006
     55          1           0        1.261080    1.118442   -1.792743
     56          1           0        2.373936    5.142232   -0.657664
     57          1           0        4.372064    4.280340    0.489934
     58          1           0        1.507505   -0.809782   -0.002363
     59          1           0        3.939627    0.332215    3.048182
     60          1           0        2.627115    0.924738    2.063305
     61          1           0        3.011595   -1.733445    3.166044
     62          1           0        1.594596   -1.059467    2.378927
     63          1           0        0.742641   -3.096006   -1.358798
     64          1           0        1.971297   -3.747965   -2.410513
     65          1           0        1.681646   -5.022746   -0.273981
     66          1           0        3.327008   -4.451624   -0.485851
     67          1           0        1.139686   -3.201351    1.254276
     68          1           0        2.568793   -4.045304    1.836067
     69          1           0        3.893255    0.240162   -2.589293
     70          1           0        5.299383   -0.337807   -1.751844
     71          1           0        3.664748   -1.947266   -3.220508
     72          1           0        4.433277   -2.589538   -1.771668
     73          1           0        4.834987   -2.956699    0.209506
     74          1           0        4.758277   -2.929686    1.935980
     75          1           0        5.709976   -0.942733    2.160576
     76          1           0        9.304410    0.746440    0.300372
     77          1           0        8.463956    0.122086   -1.132423
     78          1           0        9.246905   -1.007659    0.032873
     79          1           0        4.822450    2.558138    2.577741
     80          1           0        6.178133    3.023187    1.522151
     81          1           0        6.230376    1.500832    2.402939
     82          1           0        0.477288    4.812595   -2.104572
     83          1           0        0.309099    3.302624   -2.958883
     84          1           0       -1.079655    1.426818   -1.973057
     85          1           0       -0.863268    5.314263   -0.094783
     86          1           0       -2.835107    4.774424    1.301204
     87          1           0       -3.021371   -0.142911   -2.212693
     88          1           0       -4.954369    2.708227   -1.228498
     89          1           0       -6.383976    2.065675   -0.492482
     90          1           0       -6.580679    0.794170   -2.379185
     91          1           0       -4.944584    1.179737   -2.888668
     92          1           0       -2.429598   -3.573904   -1.809893
     93          1           0       -2.321916   -2.132081   -2.863479
     94          1           0       -4.876740   -3.546022   -1.857879
     95          1           0       -4.350167   -3.437497   -3.526693
     96          1           0       -6.270898   -1.880403   -2.868663
     97          1           0       -4.907142   -1.139095   -3.686621
     98          1           0       -1.296698    0.342726    1.008170
     99          1           0       -2.588615   -0.703107    1.543952
    100          1           0       -1.225632   -2.213291    0.222506
    101          1           0       -1.024053   -0.992033   -1.092750
    102          1           0       -5.854960   -1.956839   -0.072309
    103          1           0       -6.971434   -0.740437   -0.561482
    104          1           0       -6.465410    0.573973    1.187638
    105          1           0       -4.897901   -3.062466    3.341946
    106          1           0       -6.002888   -2.059863    4.352587
    107          1           0       -6.634912   -3.418403    3.400908
    108          1           0       -3.126397    1.621766    2.872359
    109          1           0       -4.876034    1.909140    3.122064
    110          1           0       -3.776599    3.262918    3.022802
 ---------------------------------------------------------------------
 Rotational constants (GHZ):           0.0968738           0.0335991           0.0299033
 Standard basis: STO-3G (5D, 7F)
 There are   326 symmetry adapted cartesian basis functions of A   symmetry.
 There are   326 symmetry adapted basis functions of A   symmetry.
   326 basis functions,   978 primitive gaussians,   326 cartesian basis functions
   197 alpha electrons      197 beta electrons
       nuclear repulsion energy      8179.5574330189 Hartrees.
 NAtoms=  110 NActive=  110 NUniq=  110 SFac= 1.00D+00 NAtFMM=   60 NAOKFM=T Big=T
 Integral buffers will be    131072 words long.
 Raffenetti 1 integral format.
 Two-electron integral symmetry is turned on.
 One-electron integrals computed using PRISM.
 NBasis=   326 RedAO= T EigKep=  1.72D-01  NBF=   326
 NBsUse=   326 1.00D-06 EigRej= -1.00D+00 NBFU=   326
 ExpMin= 1.69D-01 ExpMax= 1.31D+02 ExpMxC= 1.31D+02 IAcc=3 IRadAn=         5 AccDes= 0.00D+00
 Harris functional with IExCor=  205 and IRadAn=       5 diagonalized for initial guess.
 HarFok:  IExCor=  205 AccDes= 0.00D+00 IRadAn=         5 IDoV= 1 UseB2=F ITyADJ=14
 ICtDFT=  3500011 ScaDFX=  1.000000  1.000000  1.000000  1.000000
 FoFCou: FMM=F IPFlag=           0 FMFlag=      100000 FMFlg1=        2001
         NFxFlg=           0 DoJE=T BraDBF=F KetDBF=T FulRan=T
         wScrn=  0.000000 ICntrl=       500 IOpCl=  0 I1Cent=   200000004 NGrid=           0
         NMat0=    1 NMatS0=      1 NMatT0=    0 NMatD0=    1 NMtDS0=    0 NMtDT0=    0
 Petite list used in FoFCou.
 Requested convergence on RMS density matrix=1.00D-08 within 128 cycles.
 Requested convergence on MAX density matrix=1.00D-06.
 Requested convergence on             energy=1.00D-06.
 No special actions if energy rises.
 Integral accuracy reduced to 1.0D-05 until final iterations.
 Initial convergence to 1.0D-05 achieved.  Increase integral accuracy.
 SCF Done:  E(RHF) =  -2300.19466368     A.U. after   15 cycles
            NFock= 15  Conv=0.98D-08     -V/T= 2.0092
 Range of M.O.s used for correlation:     1   326
 NBasis=   326 NAE=   197 NBE=   197 NFC=     0 NFV=     0
 NROrb=    326 NOA=   197 NOB=   197 NVA=   129 NVB=   129
          Differentiating once with respect to magnetic field using GIAOs.
          Electric field/nuclear overlap derivatives assumed to be zero.
 FoFCou: FMM=F IPFlag=           0 FMFlag=      100000 FMFlg1=        2001
         NFxFlg=           0 DoJE=F BraDBF=F KetDBF=T FulRan=T
         wScrn=  0.000000 ICntrl=      6100 IOpCl=  0 I1Cent=           7 NGrid=         110
         NMat0=    1 NMatS0=      1 NMatT0=    0 NMatD0=    1 NMtDS0=    0 NMtDT0=    0
 Symmetry not used in FoFCou.
 FoFJK:  IHMeth= 1 ICntrl=    6127 DoSepK=F KAlg= 0 I1Cent=           0 FoldK=F
 IRaf=         1 NMat=       1 IRICut=       1 DoRegI=T DoRafI=F ISym2E= 0 IDoP0=0 IntGTp=1.
          There are     3 degrees of freedom in the 1st order CPHF.  IDoFFX=0 NUNeed=     3.
      3 vectors produced by pass  0 Test12= 8.47D-13 3.33D-08 XBig12= 1.73D+02 2.15D+00.
 AX will form     3 AO Fock derivatives at one time.
      3 vectors produced by pass  1 Test12= 8.47D-13 3.33D-08 XBig12= 7.78D-01 2.94D-01.
      3 vectors produced by pass  2 Test12= 8.47D-13 3.33D-08 XBig12= 1.94D-02 3.41D-02.
      3 vectors produced by pass  3 Test12= 8.47D-13 3.33D-08 XBig12= 3.83D-04 7.45D-03.
      3 vectors produced by pass  4 Test12= 8.47D-13 3.33D-08 XBig12= 1.51D-05 8.53D-04.
      3 vectors produced by pass  5 Test12= 8.47D-13 3.33D-08 XBig12= 2.54D-07 6.88D-05.
      3 vectors produced by pass  6 Test12= 8.47D-13 3.33D-08 XBig12= 6.30D-09 1.97D-05.
      3 vectors produced by pass  7 Test12= 8.47D-13 3.33D-08 XBig12= 2.81D-10 3.66D-06.
      3 vectors produced by pass  8 Test12= 8.47D-13 3.33D-08 XBig12= 6.22D-12 3.25D-07.
      2 vectors produced by pass  9 Test12= 8.47D-13 3.33D-08 XBig12= 1.41D-13 5.08D-08.
 InvSVY:  IOpt=1 It=  1 EMax= 5.33D-15
 Solved reduced A of dimension    29 with     3 vectors.
 Calculating GIAO nuclear magnetic shielding tensors.
 SCF GIAO Magnetic shielding tensor (ppm):
      1  C    Isotropic =   125.0755   Anisotropy =   150.1256
   XX=   118.8747   YX=   -22.7788   ZX=   -73.2882
   XY=   -29.0187   YY=    80.6141   ZY=   -35.4126
   XZ=   -67.6539   YZ=   -37.5430   ZZ=   175.7377
   Eigenvalues:    33.2491   116.8182   225.1592
      2  C    Isotropic =   121.0681   Anisotropy =   155.8862
   XX=    99.3955   YX=    26.0990   ZX=   -75.7002
   XY=    21.6631   YY=    90.6353   ZY=    -2.7752
   XZ=   -81.8378   YZ=    -2.7064   ZZ=   173.1734
   Eigenvalues:    41.9472    96.2648   224.9922
      3  C    Isotropic =   119.6159   Anisotropy =   149.5436
   XX=   136.1911   YX=    20.4517   ZX=   -50.1304
   XY=    19.7779   YY=    32.6134   ZY=    -6.6933
   XZ=   -45.1277   YZ=    -8.1692   ZZ=   190.0431
   Eigenvalues:    28.8289   110.7071   219.3116
      4  C    Isotropic =   133.6509   Anisotropy =   142.6862
   XX=   127.2443   YX=   -22.8324   ZX=   -66.6346
   XY=   -19.3909   YY=    91.3517   ZY=   -23.6162
   XZ=   -68.2488   YZ=   -33.7930   ZZ=   182.3568
   Eigenvalues:    52.4310   119.7468   228.7751
      5  C    Isotropic =   108.8249   Anisotropy =   127.4136
   XX=    93.9286   YX=    23.1691   ZX=   -67.4569
   XY=    10.4271   YY=    88.0745   ZY=    -0.6671
   XZ=   -70.8316   YZ=    -0.1451   ZZ=   144.4717
   Eigenvalues:    41.5859    91.1216   193.7674
      6  C    Isotropic =   117.6408   Anisotropy =   139.8765
   XX=   122.1369   YX=     1.3517   ZX=   -56.3615
   XY=     9.1910   YY=    50.4315   ZY=    -4.9924
   XZ=   -47.0577   YZ=    -5.0945   ZZ=   180.3540
   Eigenvalues:    50.0290    92.0016   210.8918
      7  N    Isotropic =   273.5381   Anisotropy =    81.7374
   XX=   268.9782   YX=   -15.0552   ZX=    25.4171
   XY=   -27.8718   YY=   281.8905   ZY=   -43.4128
   XZ=    15.1899   YZ=   -30.5261   ZZ=   269.7454
   Eigenvalues:   238.2221   254.3624   328.0297
      8  C    Isotropic =   196.1063   Anisotropy =    14.6785
   XX=   201.5136   YX=     2.4804   ZX=    -1.4255
   XY=     8.1816   YY=   194.7868   ZY=     5.2525
   XZ=     3.2878   YZ=     8.3674   ZZ=   192.0185
   Eigenvalues:   185.9516   196.4754   205.8920
      9  C    Isotropic =   181.2464   Anisotropy =    45.0102
   XX=   178.2161   YX=    22.2200   ZX=     8.3865
   XY=    10.8767   YY=   202.4287   ZY=     2.4525
   XZ=    19.3475   YZ=    -6.8224   ZZ=   163.0944
   Eigenvalues:   152.4846   180.0014   211.2532
     10  C    Isotropic =   190.1183   Anisotropy =    27.6693
   XX=   178.0248   YX=     6.9279   ZX=     0.5834
   XY=     4.3706   YY=   194.5864   ZY=    11.0834
   XZ=    -3.0140   YZ=    12.9730   ZZ=   197.7437
   Eigenvalues:   174.9745   186.8159   208.5644
     11  C    Isotropic =   213.9502   Anisotropy =    18.7087
   XX=   214.2194   YX=    -0.3993   ZX=   -11.7025
   XY=     5.6830   YY=   209.5153   ZY=     0.0185
   XZ=    -8.1244   YZ=     0.2039   ZZ=   218.1158
   Eigenvalues:   205.0413   210.3866   226.4226
     12  C    Isotropic =   213.0924   Anisotropy =    19.7163
   XX=   208.2681   YX=     0.7408   ZX=    -2.1016
   XY=    -0.6500   YY=   214.4751   ZY=    11.6298
   XZ=    -2.6643   YZ=     9.3965   ZZ=   216.5339
   Eigenvalues:   204.2522   208.7883   226.2366
     13  C    Isotropic =   213.8610   Anisotropy =     8.7795
   XX=   218.3977   YX=     0.7529   ZX=    -4.7936
   XY=     1.2277   YY=   213.6685   ZY=    -1.6125
   XZ=    -0.8176   YZ=    -3.6220   ZZ=   209.5168
   Eigenvalues:   207.8113   214.0577   219.7140
     14  N    Isotropic =   302.1005   Anisotropy =    52.3255
   XX=   305.4034   YX=    36.8838   ZX=   -30.9294
   XY=    20.1677   YY=   294.1673   ZY=    31.7200
   XZ=   -22.6321   YZ=    39.3417   ZZ=   306.7308
   Eigenvalues:   240.7456   328.5717   336.9841
     15  C    Isotropic =   205.4305   Anisotropy =    33.0649
   XX=   202.0752   YX=    12.4470   ZX=     4.3950
   XY=    16.6493   YY=   219.1014   ZY=    -2.5434
   XZ=     6.0394   YZ=    -1.2186   ZZ=   195.1147
   Eigenvalues:   188.9079   199.9097   227.4737
     16  C    Isotropic =   224.3727   Anisotropy =     7.6612
   XX=   221.3711   YX=     3.6282   ZX=     3.3840
   XY=    -1.4009   YY=   224.3195   ZY=     1.9558
   XZ=     2.7700   YZ=     1.4096   ZZ=   227.4276
   Eigenvalues:   220.0449   223.5931   229.4802
     17  C    Isotropic =   215.5347   Anisotropy =    18.7526
   XX=   215.1588   YX=     5.7313   ZX=     2.7092
   XY=     9.8372   YY=   222.2943   ZY=     4.9100
   XZ=     0.2818   YZ=     2.0908   ZZ=   209.1510
   Eigenvalues:   208.2084   210.3593   228.0364
     18  C    Isotropic =   210.9035   Anisotropy =    36.5210
   XX=   195.4432   YX=    -5.1645   ZX=   -15.1745
   XY=     1.8745   YY=   216.6878   ZY=    12.4874
   XZ=   -11.8617   YZ=    13.7044   ZZ=   220.5794
   Eigenvalues:   188.9623   208.4973   235.2508
     19  C    Isotropic =   199.5007   Anisotropy =    44.0699
   XX=   213.5653   YX=    13.5084   ZX=   -24.2194
   XY=    14.9377   YY=   192.6807   ZY=     7.1016
   XZ=   -17.6396   YZ=     4.6088   ZZ=   192.2559
   Eigenvalues:   171.5577   198.0636   228.8806
     20  C    Isotropic =   212.2546   Anisotropy =    22.4661
   XX=   226.5213   YX=     2.7270   ZX=    -0.1205
   XY=     3.7663   YY=   211.0366   ZY=    -3.4883
   XZ=    -0.6251   YZ=    -5.4321   ZZ=   199.2060
   Eigenvalues:   197.6966   211.8353   227.2320
     21  C    Isotropic =   209.1601   Anisotropy =    10.9914
   XX=   214.2341   YX=     0.0743   ZX=    -3.0404
   XY=    -7.5823   YY=   208.6739   ZY=    -3.2664
   XZ=    -5.6760   YZ=    -6.5888   ZZ=   204.5722
   Eigenvalues:   199.1234   211.8691   216.4877
     22  C    Isotropic =    96.4639   Anisotropy =    98.7466
   XX=     8.7769   YX=   -64.5389   ZX=    28.1338
   XY=   -78.6522   YY=   128.5877   ZY=    16.4510
   XZ=    13.2742   YZ=     5.9417   ZZ=   152.0270
   Eigenvalues:   -27.7410   154.8377   162.2950
     23  O    Isotropic =  -134.8182   Anisotropy =   887.6156
   XX=  -180.9696   YX=  -159.0417   ZX=   221.2548
   XY=  -169.9494   YY=  -129.8160   ZY=  -459.9402
   XZ=   202.2958   YZ=  -453.4444   ZZ=   -93.6688
   Eigenvalues:  -571.3282  -290.0518   456.9256
     24  O    Isotropic =   283.8618   Anisotropy =   139.8694
   XX=   244.5029   YX=    -3.2811   ZX=    76.6110
   XY=   103.1220   YY=   353.1219   ZY=   -68.0728
   XZ=   157.2997   YZ=     0.3950   ZZ=   253.9606
   Eigenvalues:   117.1778   357.2995   377.1081
     25  C    Isotropic =   197.3650   Anisotropy =    57.8875
   XX=   222.9189   YX=     3.3978   ZX=   -23.8027
   XY=     3.4567   YY=   177.9180   ZY=    -2.7130
   XZ=   -23.7734   YZ=    -1.9909   ZZ=   191.2582
   Eigenvalues:   177.4335   178.7049   235.9567
     26  C    Isotropic =   209.9400   Anisotropy =    41.5692
   XX=   209.0595   YX=     7.6241   ZX=    14.2448
   XY=     9.8757   YY=   203.6657   ZY=    16.2525
   XZ=    13.8109   YZ=    16.5475   ZZ=   217.0949
   Eigenvalues:   192.6241   199.5432   237.6529
     27  C    Isotropic =   206.4285   Anisotropy =    14.7985
   XX=   216.1934   YX=    -0.4521   ZX=    -1.7516
   XY=    -0.9674   YY=   202.3766   ZY=    -5.8249
   XZ=    -0.6343   YZ=    -3.7939   ZZ=   200.7153
   Eigenvalues:   196.5697   206.4215   216.2942
     28  C    Isotropic =   117.2360   Anisotropy =   162.6620
   XX=   101.5960   YX=   -40.2594   ZX=    85.1624
   XY=   -38.6115   YY=   106.8512   ZY=   -34.5777
   XZ=    75.8755   YZ=   -27.4922   ZZ=   143.2607
   Eigenvalues:    36.6173    89.4133   225.6773
     29  C    Isotropic =   127.7426   Anisotropy =   146.8649
   XX=   150.4869   YX=     1.6416   ZX=    72.5724
   XY=     0.3253   YY=    90.3170   ZY=   -69.6168
   XZ=    57.3583   YZ=   -53.1526   ZZ=   142.4238
   Eigenvalues:    35.5841   121.9911   225.6525
     30  C    Isotropic =   120.1984   Anisotropy =   152.3503
   XX=   129.8836   YX=   -60.0371   ZX=    49.6233
   XY=   -56.5201   YY=    65.4273   ZY=   -36.8923
   XZ=    35.9614   YZ=   -40.9326   ZZ=   165.2843
   Eigenvalues:    29.8158   109.0142   221.7653
     31  C    Isotropic =   128.3134   Anisotropy =   152.2689
   XX=   141.9970   YX=    -8.8361   ZX=    72.2751
   XY=   -10.2146   YY=   101.0872   ZY=   -60.1727
   XZ=    61.3207   YZ=   -63.1278   ZZ=   141.8559
   Eigenvalues:    43.1945   111.9196   229.8260
     32  C    Isotropic =   107.0487   Anisotropy =   126.1327
   XX=   101.2193   YX=   -22.6957   ZX=    66.0611
   XY=   -27.4798   YY=    98.6167   ZY=   -24.0396
   XZ=    76.1316   YZ=    -4.5272   ZZ=   121.3101
   Eigenvalues:    37.8167    92.1923   191.1372
     33  C    Isotropic =   113.6311   Anisotropy =   147.1551
   XX=   141.4557   YX=   -36.5237   ZX=    57.4203
   XY=   -47.5138   YY=    59.6559   ZY=   -22.8702
   XZ=    55.1590   YZ=   -26.6281   ZZ=   139.7818
   Eigenvalues:    41.9055    87.2533   211.7345
     34  N    Isotropic =   275.9522   Anisotropy =    78.2173
   XX=   284.2564   YX=    39.8613   ZX=    -0.6932
   XY=    34.2294   YY=   286.0932   ZY=   -39.4887
   XZ=    -9.1295   YZ=    -6.9637   ZZ=   257.5069
   Eigenvalues:   237.5251   262.2343   328.0970
     35  C    Isotropic =   199.5928   Anisotropy =    12.8595
   XX=   193.6216   YX=    -5.2958   ZX=    -7.6053
   XY=    -3.1793   YY=   201.1664   ZY=     8.2152
   XZ=    -3.2631   YZ=    -4.3488   ZZ=   203.9903
   Eigenvalues:   190.3226   200.2900   208.1658
     36  C    Isotropic =   180.2369   Anisotropy =    35.9536
   XX=   177.1878   YX=    10.7287   ZX=   -10.4268
   XY=     2.2962   YY=   181.9951   ZY=    18.6822
   XZ=     0.2875   YZ=    26.1159   ZZ=   181.5277
   Eigenvalues:   156.1705   180.3342   204.2059
     37  C    Isotropic =   183.3474   Anisotropy =    43.4899
   XX=   177.1030   YX=   -15.9423   ZX=    12.1553
   XY=   -19.5477   YY=   200.0543   ZY=    -3.5608
   XZ=    18.9387   YZ=    -1.6811   ZZ=   172.8847
   Eigenvalues:   156.7347   180.9668   212.3406
     38  C    Isotropic =   206.6638   Anisotropy =    32.7022
   XX=   204.7449   YX=    -2.9963   ZX=    15.8247
   XY=    -7.0315   YY=   202.2907   ZY=    -3.8903
   XZ=    17.9003   YZ=    -7.7915   ZZ=   212.9558
   Eigenvalues:   191.4831   200.0430   228.4653
     39  C    Isotropic =   212.9020   Anisotropy =    19.5372
   XX=   205.1886   YX=    -5.8485   ZX=    -0.1785
   XY=    -3.9687   YY=   224.4362   ZY=    -4.0841
   XZ=     2.0711   YZ=    -0.1692   ZZ=   209.0813
   Eigenvalues:   203.9722   208.8069   225.9268
     40  C    Isotropic =   211.6658   Anisotropy =    11.5708
   XX=   210.0887   YX=     3.8082   ZX=     3.4577
   XY=     3.9426   YY=   211.7680   ZY=     4.7528
   XZ=     3.8239   YZ=     2.9525   ZZ=   213.1408
   Eigenvalues:   206.9003   208.7175   219.3797
     41  N    Isotropic =   235.2270   Anisotropy =    23.5664
   XX=   243.7836   YX=     5.1129   ZX=    -8.9404
   XY=    -6.9397   YY=   239.4510   ZY=     0.1805
   XZ=   -15.6198   YZ=   -21.6785   ZZ=   222.4464
   Eigenvalues:   212.9060   241.8370   250.9380
     42  C    Isotropic =   193.6264   Anisotropy =    49.4109
   XX=   182.0969   YX=    -1.3054   ZX=     2.2602
   XY=    -2.4020   YY=   191.5926   ZY=    28.2748
   XZ=    -1.7622   YZ=    23.7522   ZZ=   207.1898
   Eigenvalues:   171.9692   182.3430   226.5670
     43  C    Isotropic =   219.3386   Anisotropy =    11.8570
   XX=   223.7001   YX=    -2.0641   ZX=     6.2702
   XY=    -2.4573   YY=   222.2871   ZY=     3.9448
   XZ=     8.3889   YZ=     6.2673   ZZ=   212.0286
   Eigenvalues:   206.5196   224.2529   227.2433
     44  C    Isotropic =   214.6696   Anisotropy =    22.0991
   XX=   205.9060   YX=    -0.5293   ZX=     5.6385
   XY=    -2.2698   YY=   220.6993   ZY=    10.6930
   XZ=     2.4473   YZ=     9.5300   ZZ=   217.4036
   Eigenvalues:   203.0522   211.5543   229.4024
     45  C    Isotropic =   207.2416   Anisotropy =    37.2040
   XX=   209.2630   YX=   -18.3799   ZX=    13.8064
   XY=   -15.2653   YY=   216.5374   ZY=     2.9576
   XZ=    18.9924   YZ=     3.9428   ZZ=   195.9242
   Eigenvalues:   180.2884   209.3921   232.0442
     46  C    Isotropic =   190.6163   Anisotropy =    55.9342
   XX=   215.2395   YX=     1.0633   ZX=    23.0437
   XY=    11.2107   YY=   184.3397   ZY=     9.9649
   XZ=    22.9061   YZ=    15.3857   ZZ=   172.2697
   Eigenvalues:   158.7638   185.1793   227.9058
     47  C    Isotropic =   210.8806   Anisotropy =    25.1303
   XX=   204.0242   YX=     7.2589   ZX=    -4.7857
   XY=     7.3241   YY=   201.8626   ZY=     2.4511
   XZ=    -4.0764   YZ=     2.3992   ZZ=   226.7551
   Eigenvalues:   194.8660   210.1417   227.6342
     48  C    Isotropic =   205.6869   Anisotropy =    14.8799
   XX=   202.0633   YX=     2.2832   ZX=    -0.5646
   XY=     4.3936   YY=   207.6343   ZY=    -7.3544
   XZ=    -4.5597   YZ=    -6.2787   ZZ=   207.3631
   Eigenvalues:   200.2398   201.2141   215.6068
     49  C    Isotropic =    97.0058   Anisotropy =    95.3878
   XX=   136.7670   YX=   -51.6060   ZX=    39.2566
   XY=   -37.1071   YY=    49.3029   ZY=    85.9994
   XZ=    22.3996   YZ=    71.3358   ZZ=   104.9475
   Eigenvalues:   -24.4189   154.8387   160.5977
     50  O    Isotropic =  -118.0033   Anisotropy =   854.1478
   XX=  -151.1363   YX=  -326.4720   ZX=  -340.5914
   XY=  -317.5577   YY=   -10.5311   ZY=   184.5509
   XZ=  -342.2203   YZ=   173.1556   ZZ=  -192.3424
   Eigenvalues:  -537.3954  -268.0430   451.4286
     51  O    Isotropic =   286.4546   Anisotropy =   144.0018
   XX=   339.0404   YX=    81.7877   ZX=  -112.4154
   XY=     6.6518   YY=   335.1671   ZY=    18.2633
   XZ=   -42.9310   YZ=   117.0491   ZZ=   185.1563
   Eigenvalues:   122.8968   354.0111   382.4558
     52  C    Isotropic =   197.5746   Anisotropy =    56.3697
   XX=   180.3671   YX=    -3.3553   ZX=     3.1659
   XY=    -4.0802   YY=   200.3760   ZY=   -28.0055
   XZ=     2.5764   YZ=   -27.9929   ZZ=   211.9806
   Eigenvalues:   177.1785   180.3909   235.1543
     53  C    Isotropic =   207.6755   Anisotropy =    41.3169
   XX=   191.3753   YX=    -0.6729   ZX=     4.0465
   XY=     0.9719   YY=   196.5370   ZY=    -2.1049
   XZ=    -0.6363   YZ=    -0.3827   ZZ=   235.1141
   Eigenvalues:   191.3014   196.5050   235.2201
     54  O    Isotropic =    77.1783   Anisotropy =   401.4174
   XX=    26.5177   YX=   102.6369   ZX=  -128.8446
   XY=    82.7328   YY=    52.1051   ZY=  -150.8531
   XZ=  -116.2031   YZ=  -169.9523   ZZ=   152.9122
   Eigenvalues:   -65.8487   -47.4063   344.7899
     55  H    Isotropic =    25.7563   Anisotropy =    13.5812
   XX=    29.5090   YX=    -4.7882   ZX=     1.5698
   XY=    -5.1540   YY=    28.5627   ZY=    -1.9333
   XZ=     3.8732   YZ=    -2.4611   ZZ=    19.1972
   Eigenvalues:    18.4092    24.0493    34.8105
     56  H    Isotropic =    25.7341   Anisotropy =     6.5278
   XX=    28.0301   YX=     1.6645   ZX=     3.1134
   XY=     0.5726   YY=    27.3173   ZY=     0.3162
   XZ=     3.7458   YZ=     0.6081   ZZ=    21.8548
   Eigenvalues:    20.3276    26.7887    30.0859
     57  H    Isotropic =    26.6314   Anisotropy =     7.9231
   XX=    26.5360   YX=    -0.7109   ZX=     3.6409
   XY=    -0.8139   YY=    31.5199   ZY=    -0.8084
   XZ=     3.6166   YZ=    -1.1134   ZZ=    21.8382
   Eigenvalues:    19.8444    28.1362    31.9134
     58  H    Isotropic =    32.0177   Anisotropy =    15.1348
   XX=    40.8150   YX=    -3.0812   ZX=     1.0896
   XY=    -4.7816   YY=    29.9532   ZY=     1.0770
   XZ=     0.0991   YZ=    -1.0748   ZZ=    25.2850
   Eigenvalues:    25.2561    28.6895    42.1076
     59  H    Isotropic =    32.3639   Anisotropy =    13.3831
   XX=    28.6645   YX=     4.5031   ZX=     2.3310
   XY=     3.4944   YY=    29.3836   ZY=     3.2011
   XZ=     4.0410   YZ=     2.6021   ZZ=    39.0435
   Eigenvalues:    24.9960    30.8097    41.2860
     60  H    Isotropic =    33.4002   Anisotropy =     8.9486
   XX=    34.1092   YX=    -3.4489   ZX=    -3.9360
   XY=    -5.0015   YY=    35.4555   ZY=     1.3710
   XZ=    -1.0123   YZ=    -1.4027   ZZ=    30.6361
   Eigenvalues:    28.5559    32.2789    39.3660
     61  H    Isotropic =    32.5159   Anisotropy =    14.6473
   XX=    27.2136   YX=     0.5820   ZX=     1.1290
   XY=     0.6007   YY=    29.7931   ZY=    -4.3258
   XZ=     1.1138   YZ=    -4.8495   ZZ=    40.5410
   Eigenvalues:    26.5824    28.6845    42.2808
     62  H    Isotropic =    32.9387   Anisotropy =    13.9130
   XX=    40.6830   YX=    -0.5776   ZX=    -4.3227
   XY=    -1.3451   YY=    28.3166   ZY=     1.4496
   XZ=    -4.0888   YZ=    -0.0294   ZZ=    29.8164
   Eigenvalues:    27.9329    28.6691    42.2140
     63  H    Isotropic =    32.0056   Anisotropy =    17.6551
   XX=    43.4152   YX=    -0.7090   ZX=     2.7546
   XY=     0.7332   YY=    27.8973   ZY=     0.9206
   XZ=     2.4849   YZ=     0.2648   ZZ=    24.7042
   Eigenvalues:    24.2503    27.9908    43.7757
     64  H    Isotropic =    31.8481   Anisotropy =    14.4336
   XX=    27.2547   YX=     1.4887   ZX=     0.9764
   XY=     2.0488   YY=    31.8593   ZY=     7.1059
   XZ=     1.3030   YZ=     6.2448   ZZ=    36.4305
   Eigenvalues:    26.2661    27.8079    41.4705
     65  H    Isotropic =    32.6564   Anisotropy =    16.8353
   XX=    29.8705   YX=     6.3999   ZX=     0.6271
   XY=     6.0099   YY=    41.1144   ZY=     0.3327
   XZ=     0.6385   YZ=     0.1870   ZZ=    26.9843
   Eigenvalues:    26.5658    27.5235    43.8799
     66  H    Isotropic =    32.5769   Anisotropy =    12.2569
   XX=    35.8026   YX=    -5.1859   ZX=    -1.3503
   XY=    -4.7736   YY=    34.8174   ZY=     2.3068
   XZ=    -1.2488   YZ=     2.0587   ZZ=    27.1108
   Eigenvalues:    26.5355    30.4470    40.7482
     67  H    Isotropic =    32.8097   Anisotropy =    13.4075
   XX=    40.6045   YX=     1.0869   ZX=    -3.6564
   XY=     1.3078   YY=    29.3250   ZY=     0.0893
   XZ=    -3.6732   YZ=    -0.6098   ZZ=    28.4995
   Eigenvalues:    27.4736    29.2075    41.7480
     68  H    Isotropic =    32.5464   Anisotropy =    14.5575
   XX=    27.4564   YX=    -0.0252   ZX=     2.3972
   XY=     0.4948   YY=    35.6092   ZY=    -6.9054
   XZ=     1.8938   YZ=    -7.1488   ZZ=    34.5736
   Eigenvalues:    25.9338    29.4541    42.2514
     69  H    Isotropic =    32.3600   Anisotropy =    11.1106
   XX=    26.5450   YX=    -2.5289   ZX=    -1.1563
   XY=    -1.3141   YY=    33.3362   ZY=    -5.6315
   XZ=    -0.1861   YZ=    -2.4602   ZZ=    37.1990
   Eigenvalues:    25.7489    31.5641    39.7671
     70  H    Isotropic =    32.9396   Anisotropy =    12.1197
   XX=    40.6576   YX=     1.2132   ZX=    -1.9977
   XY=     1.0582   YY=    26.9106   ZY=    -0.2562
   XZ=    -1.3293   YZ=     1.2473   ZZ=    31.2505
   Eigenvalues:    26.7259    31.0735    41.0194
     71  H    Isotropic =    31.8399   Anisotropy =    15.6419
   XX=    27.0465   YX=     0.7471   ZX=    -3.6019
   XY=     0.7140   YY=    27.5155   ZY=     3.4065
   XZ=    -1.4050   YZ=     4.1059   ZZ=    40.9578
   Eigenvalues:    25.2992    27.9528    42.2679
     72  H    Isotropic =    31.9445   Anisotropy =     9.9351
   XX=    34.2977   YX=    -4.7671   ZX=    -1.6449
   XY=    -4.5101   YY=    32.4842   ZY=     1.0130
   XZ=    -1.1721   YZ=     2.0786   ZZ=    29.0517
   Eigenvalues:    28.3400    28.9256    38.5679
     73  H    Isotropic =    31.4392   Anisotropy =     9.7742
   XX=    32.4319   YX=    -3.4817   ZX=    -1.6177
   XY=    -2.1045   YY=    32.6637   ZY=     4.9159
   XZ=    -1.6021   YZ=     4.7799   ZZ=    29.2221
   Eigenvalues:    25.7831    30.5792    37.9553
     74  H    Isotropic =    32.2885   Anisotropy =    14.7424
   XX=    30.7368   YX=    -2.3900   ZX=     4.9076
   XY=    -1.6434   YY=    33.9999   ZY=    -6.9144
   XZ=     4.4452   YZ=    -7.2508   ZZ=    32.1289
   Eigenvalues:    24.8575    29.8913    42.1168
     75  H    Isotropic =    31.2838   Anisotropy =    12.6391
   XX=    32.3974   YX=     1.0793   ZX=     6.1655
   XY=     1.1436   YY=    26.9910   ZY=    -1.1598
   XZ=     6.1944   YZ=     0.3813   ZZ=    34.4630
   Eigenvalues:    25.9676    28.1739    39.7099
     76  H    Isotropic =    30.5613   Anisotropy =    12.2291
   XX=    35.1069   YX=     5.3852   ZX=     1.1291
   XY=     4.9292   YY=    30.6486   ZY=     2.0336
   XZ=     0.3759   YZ=     1.7277   ZZ=    25.9284
   Eigenvalues:    25.1007    27.8692    38.7141
     77  H    Isotropic =    30.6585   Anisotropy =     7.8942
   XX=    31.3446   YX=     0.5667   ZX=    -1.6463
   XY=     0.9855   YY=    26.2696   ZY=    -1.8074
   XZ=    -2.5327   YZ=    -2.2880   ZZ=    34.3614
   Eigenvalues:    25.7665    30.2877    35.9214
     78  H    Isotropic =    30.5921   Anisotropy =    11.7674
   XX=    35.4958   YX=    -4.3852   ZX=    -0.2633
   XY=    -5.0658   YY=    30.8088   ZY=    -0.2234
   XZ=    -0.5345   YZ=     0.3085   ZZ=    25.4717
   Eigenvalues:    25.4491    27.8900    38.4370
     79  H    Isotropic =    32.0068   Anisotropy =    11.1354
   XX=    29.4887   YX=    -0.0455   ZX=    -2.1518
   XY=    -0.4897   YY=    31.7769   ZY=     5.9367
   XZ=     0.1219   YZ=     5.8337   ZZ=    34.7550
   Eigenvalues:    27.1211    29.4690    39.4304
     80  H    Isotropic =    30.8022   Anisotropy =    14.8384
   XX=    32.2601   YX=     6.7084   ZX=     1.4078
   XY=     6.5744   YY=    35.2583   ZY=     0.4355
   XZ=     2.2561   YZ=     0.2477   ZZ=    24.8882
   Eigenvalues:    24.2229    27.4892    40.6944
     81  H    Isotropic =    30.9619   Anisotropy =    10.9961
   XX=    32.8607   YX=    -1.2943   ZX=     6.1931
   XY=    -1.0282   YY=    30.3140   ZY=     1.0295
   XZ=     7.4111   YZ=     0.4753   ZZ=    29.7111
   Eigenvalues:    24.0295    30.5637    38.2927
     82  H    Isotropic =    29.8551   Anisotropy =    12.5785
   XX=    27.2493   YX=     0.9568   ZX=    -0.0248
   XY=     1.3740   YY=    37.4221   ZY=    -2.5795
   XZ=    -0.5476   YZ=    -3.4495   ZZ=    24.8938
   Eigenvalues:    24.2061    27.1185    38.2407
     83  H    Isotropic =    29.9816   Anisotropy =     8.1327
   XX=    26.3213   YX=     0.8898   ZX=     0.5835
   XY=     0.8867   YY=    28.5690   ZY=     0.7008
   XZ=     1.3103   YZ=     1.7121   ZZ=    35.0546
   Eigenvalues:    25.9829    28.5586    35.4034
     84  H    Isotropic =    25.9439   Anisotropy =    11.8368
   XX=    29.9600   YX=     5.0629   ZX=    -1.7144
   XY=     4.1507   YY=    26.7522   ZY=    -1.6860
   XZ=    -3.0738   YZ=    -1.1180   ZZ=    21.1195
   Eigenvalues:    20.4997    23.4969    33.8351
     85  H    Isotropic =    25.7902   Anisotropy =     6.5680
   XX=    26.6579   YX=    -0.7600   ZX=    -3.4030
   XY=     0.0713   YY=    27.3948   ZY=     1.8851
   XZ=    -4.4088   YZ=     2.5897   ZZ=    23.3180
   Eigenvalues:    20.3267    26.8751    30.1689
     86  H    Isotropic =    26.1057   Anisotropy =     7.7745
   XX=    24.9976   YX=     3.1757   ZX=    -2.5251
   XY=     2.4908   YY=    29.9988   ZY=     1.6750
   XZ=    -3.3346   YZ=     1.5711   ZZ=    23.3207
   Eigenvalues:    20.1723    26.8560    31.2887
     87  H    Isotropic =    31.6044   Anisotropy =     5.6958
   XX=    32.0298   YX=     2.3237   ZX=    -2.4888
   XY=     1.5184   YY=    30.1874   ZY=    -0.9737
   XZ=    -2.8775   YZ=     0.7070   ZZ=    32.5960
   Eigenvalues:    28.4100    31.0017    35.4016
     88  H    Isotropic =    32.5070   Anisotropy =     9.5330
   XX=    30.7994   YX=     2.7017   ZX=     2.0359
   XY=    -0.1983   YY=    37.7224   ZY=    -3.4968
   XZ=     5.1343   YZ=    -3.2091   ZZ=    28.9994
   Eigenvalues:    25.2576    33.4011    38.8624
     89  H    Isotropic =    31.4889   Anisotropy =    15.0063
   XX=    37.5710   YX=    -6.2931   ZX=    -0.7069
   XY=    -7.0904   YY=    29.9543   ZY=     1.3607
   XZ=     0.9344   YZ=     1.6872   ZZ=    26.9414
   Eigenvalues:    25.0497    27.9239    41.4931
     90  H    Isotropic =    32.1233   Anisotropy =    16.3883
   XX=    38.2018   YX=    -2.4590   ZX=     7.1867
   XY=    -3.1585   YY=    27.9916   ZY=    -0.2499
   XZ=     7.6609   YZ=    -0.1282   ZZ=    30.1763
   Eigenvalues:    25.1057    28.2152    43.0488
     91  H    Isotropic =    32.8504   Anisotropy =    11.7385
   XX=    29.1601   YX=     1.8996   ZX=    -1.3575
   XY=     0.1554   YY=    31.2052   ZY=    -5.3706
   XZ=    -0.5493   YZ=    -3.9705   ZZ=    38.1858
   Eigenvalues:    28.4438    29.4313    40.6760
     92  H    Isotropic =    30.8052   Anisotropy =    12.9162
   XX=    31.4134   YX=    -5.4918   ZX=     1.9196
   XY=    -4.9344   YY=    35.9350   ZY=     1.7300
   XZ=     1.9957   YZ=     2.9935   ZZ=    25.0673
   Eigenvalues:    23.2164    29.7833    39.4160
     93  H    Isotropic =    31.8092   Anisotropy =     9.9813
   XX=    34.0487   YX=     0.7395   ZX=    -4.1745
   XY=     0.6076   YY=    27.5271   ZY=     2.7879
   XZ=    -4.5931   YZ=     1.8968   ZZ=    33.8518
   Eigenvalues:    26.0923    30.8718    38.4634
     94  H    Isotropic =    31.0852   Anisotropy =    12.5247
   XX=    29.8694   YX=     5.0291   ZX=    -2.0228
   XY=     5.2545   YY=    35.7298   ZY=    -2.4140
   XZ=    -1.5248   YZ=    -2.2449   ZZ=    27.6563
   Eigenvalues:    26.5564    27.2642    39.4350
     95  H    Isotropic =    32.2239   Anisotropy =    17.3656
   XX=    27.9591   YX=    -0.1592   ZX=     1.6254
   XY=     0.1836   YY=    33.0289   ZY=     8.9654
   XZ=     2.3551   YZ=     9.4431   ZZ=    35.6836
   Eigenvalues:    24.5482    28.3225    43.8009
     96  H    Isotropic =    32.0329   Anisotropy =    15.6387
   XX=    38.7944   YX=     3.1756   ZX=     5.0198
   XY=     3.1945   YY=    28.6899   ZY=     3.8870
   XZ=     5.3700   YZ=     3.9673   ZZ=    28.6142
   Eigenvalues:    24.5133    29.1266    42.4587
     97  H    Isotropic =    32.5513   Anisotropy =    12.5331
   XX=    26.7600   YX=    -0.4093   ZX=     0.3213
   XY=    -0.9110   YY=    30.1863   ZY=    -1.5504
   XZ=     0.8824   YZ=    -1.1174   ZZ=    40.7076
   Eigenvalues:    26.6283    30.1189    40.9067
     98  H    Isotropic =    33.1970   Anisotropy =    11.5753
   XX=    38.9402   YX=     0.2637   ZX=     5.6391
   XY=     1.6447   YY=    31.9172   ZY=     2.5963
   XZ=     3.7086   YZ=    -0.9546   ZZ=    28.7336
   Eigenvalues:    26.8811    31.7961    40.9139
     99  H    Isotropic =    31.2852   Anisotropy =    10.2550
   XX=    30.7149   YX=    -0.6892   ZX=    -2.2986
   XY=    -1.7657   YY=    27.0448   ZY=    -2.5332
   XZ=    -3.4944   YZ=    -4.6600   ZZ=    36.0959
   Eigenvalues:    24.9511    30.7826    38.1218
    100  H    Isotropic =    31.0071   Anisotropy =    16.5351
   XX=    37.0325   YX=    -7.0171   ZX=     4.5582
   XY=    -5.3593   YY=    30.8531   ZY=    -1.6666
   XZ=     2.7748   YZ=    -3.3877   ZZ=    25.1357
   Eigenvalues:    23.9501    27.0408    42.0305
    101  H    Isotropic =    31.2967   Anisotropy =    15.8875
   XX=    41.2761   YX=    -0.1532   ZX=    -3.3986
   XY=     0.7355   YY=    27.4976   ZY=     0.5667
   XZ=    -2.9822   YZ=    -0.4327   ZZ=    25.1163
   Eigenvalues:    24.5044    27.4973    41.8883
    102  H    Isotropic =    30.1642   Anisotropy =    10.1876
   XX=    26.6794   YX=     2.6784   ZX=    -3.9898
   XY=     3.8242   YY=    34.4948   ZY=    -1.7028
   XZ=    -2.5582   YZ=    -2.3724   ZZ=    29.3183
   Eigenvalues:    24.1889    29.3477    36.9559
    103  H    Isotropic =    31.5567   Anisotropy =    15.0517
   XX=    41.2120   YX=     2.3221   ZX=     0.5308
   XY=     2.0666   YY=    25.3804   ZY=     0.7456
   XZ=     1.3576   YZ=     0.8531   ZZ=    28.0779
   Eigenvalues:    24.9381    28.1410    41.5912
    104  H    Isotropic =    31.0668   Anisotropy =    13.8832
   XX=    36.9459   YX=    -3.0396   ZX=    -4.6912
   XY=    -3.1041   YY=    28.1520   ZY=     0.4931
   XZ=    -5.8828   YZ=     2.0437   ZZ=    28.1025
   Eigenvalues:    25.6187    27.2594    40.3223
    105  H    Isotropic =    30.6126   Anisotropy =     7.1808
   XX=    32.4592   YX=    -3.9937   ZX=    -0.7063
   XY=    -2.6194   YY=    30.7284   ZY=    -3.5147
   XZ=    -0.9728   YZ=    -3.3554   ZZ=    28.6500
   Eigenvalues:    25.0745    31.3634    35.3997
    106  H    Isotropic =    30.6678   Anisotropy =    11.0411
   XX=    26.9177   YX=     0.7534   ZX=    -2.3776
   XY=     0.7094   YY=    27.7898   ZY=     0.7249
   XZ=    -3.2797   YZ=     0.3621   ZZ=    37.2959
   Eigenvalues:    25.8320    28.1428    38.0285
    107  H    Isotropic =    30.6606   Anisotropy =    12.8441
   XX=    30.5252   YX=     5.5335   ZX=    -1.7463
   XY=     6.3002   YY=    33.3640   ZY=    -2.7369
   XZ=    -2.4260   YZ=    -3.2570   ZZ=    28.0926
   Eigenvalues:    25.8200    26.9384    39.2233
    108  H    Isotropic =    31.7315   Anisotropy =     8.6845
   XX=    30.3206   YX=    -4.1421   ZX=     4.3070
   XY=    -2.6680   YY=    29.7550   ZY=    -0.8755
   XZ=     2.1816   YZ=    -0.8683   ZZ=    35.1191
   Eigenvalues:    26.3017    31.3717    37.5212
    109  H    Isotropic =    31.8393   Anisotropy =    11.9319
   XX=    31.0469   YX=     1.4741   ZX=    -5.3805
   XY=     3.6621   YY=    29.1014   ZY=     0.4091
   XZ=    -7.0358   YZ=     2.3882   ZZ=    35.3696
   Eigenvalues:    24.7109    31.0131    39.7939
    110  H    Isotropic =    31.2069   Anisotropy =    14.5510
   XX=    25.2525   YX=     2.1935   ZX=     0.2816
   XY=     2.4668   YY=    34.6949   ZY=     5.7478
   XZ=    -2.1237   YZ=     7.5060   ZZ=    33.6732
   Eigenvalues:    23.8133    28.8998    40.9076
 End of Minotr F.D. properties file   721 does not exist.
 End of Minotr F.D. properties file   722 does not exist.
 End of Minotr F.D. properties file   788 does not exist.
 Hyperfine terms turned off by default for NAtoms > 100.

 **********************************************************************

            Population analysis using the SCF Density.

 **********************************************************************

 Orbital symmetries:
       Occupied  (A) (A) (A) (A) (A) (A) (A) (A) (A) (A) (A) (A)
                 (A) (A) (A) (A) (A) (A) (A) (A) (A) (A) (A) (A)
                 (A) (A) (A) (A) (A) (A) (A) (A) (A) (A) (A) (A)
                 (A) (A) (A) (A) (A) (A) (A) (A) (A) (A) (A) (A)
                 (A) (A) (A) (A) (A) (A) (A) (A) (A) (A) (A) (A)
                 (A) (A) (A) (A) (A) (A) (A) (A) (A) (A) (A) (A)
                 (A) (A) (A) (A) (A) (A) (A) (A) (A) (A) (A) (A)
                 (A) (A) (A) (A) (A) (A) (A) (A) (A) (A) (A) (A)
                 (A) (A) (A) (A) (A) (A) (A) (A) (A) (A) (A) (A)
                 (A) (A) (A) (A) (A) (A) (A) (A) (A) (A) (A) (A)
                 (A) (A) (A) (A) (A) (A) (A) (A) (A) (A) (A) (A)
                 (A) (A) (A) (A) (A) (A) (A) (A) (A) (A) (A) (A)
                 (A) (A) (A) (A) (A) (A) (A) (A) (A) (A) (A) (A)
                 (A) (A) (A) (A) (A) (A) (A) (A) (A) (A) (A) (A)
                 (A) (A) (A) (A) (A) (A) (A) (A) (A) (A) (A) (A)
                 (A) (A) (A) (A) (A) (A) (A) (A) (A) (A) (A) (A)
                 (A) (A) (A) (A) (A)
       Virtual   (A) (A) (A) (A) (A) (A) (A) (A) (A) (A) (A) (A)
                 (A) (A) (A) (A) (A) (A) (A) (A) (A) (A) (A) (A)
                 (A) (A) (A) (A) (A) (A) (A) (A) (A) (A) (A) (A)
                 (A) (A) (A) (A) (A) (A) (A) (A) (A) (A) (A) (A)
                 (A) (A) (A) (A) (A) (A) (A) (A) (A) (A) (A) (A)
                 (A) (A) (A) (A) (A) (A) (A) (A) (A) (A) (A) (A)
                 (A) (A) (A) (A) (A) (A) (A) (A) (A) (A) (A) (A)
                 (A) (A) (A) (A) (A) (A) (A) (A) (A) (A) (A) (A)
                 (A) (A) (A) (A) (A) (A) (A) (A) (A) (A) (A) (A)
                 (A) (A) (A) (A) (A) (A) (A) (A) (A) (A) (A) (A)
                 (A) (A) (A) (A) (A) (A) (A) (A) (A)
 The electronic state is 1-A.
 Alpha  occ. eigenvalues --  -20.30685 -20.28865 -20.24662 -20.22926 -19.92411
 Alpha  occ. eigenvalues --  -15.48424 -15.33663 -15.32584 -15.30892 -11.16581
 Alpha  occ. eigenvalues --  -11.15292 -11.10595 -11.09816 -11.09517 -11.09395
 Alpha  occ. eigenvalues --  -11.09093 -11.08876 -11.08799 -11.07961 -11.07289
 Alpha  occ. eigenvalues --  -11.07180 -11.06499 -11.06488 -11.06340 -11.06292
 Alpha  occ. eigenvalues --  -11.06213 -11.05920 -11.05840 -11.05718 -11.05480
 Alpha  occ. eigenvalues --  -11.05303 -11.04985 -11.04895 -11.04792 -11.04761
 Alpha  occ. eigenvalues --  -11.04488 -11.04296 -11.04122 -11.03991 -11.03942
 Alpha  occ. eigenvalues --  -11.03838 -11.03795 -11.03297 -11.03182 -11.02936
 Alpha  occ. eigenvalues --  -11.02327 -11.02309 -11.02277 -11.02087 -11.01995
 Alpha  occ. eigenvalues --  -11.01944 -11.01928 -11.01640 -11.01467  -1.37908
 Alpha  occ. eigenvalues --   -1.36210  -1.29768  -1.27711  -1.26099  -1.21552
 Alpha  occ. eigenvalues --   -1.20229  -1.19045  -1.10457  -1.09798  -1.09064
 Alpha  occ. eigenvalues --   -1.07622  -1.05981  -1.05061  -1.02928  -1.00944
 Alpha  occ. eigenvalues --   -0.99226  -0.98719  -0.98509  -0.97637  -0.96920
 Alpha  occ. eigenvalues --   -0.96459  -0.95318  -0.94650  -0.94059  -0.92571
 Alpha  occ. eigenvalues --   -0.91728  -0.91566  -0.89571  -0.89123  -0.87948
 Alpha  occ. eigenvalues --   -0.86485  -0.84597  -0.82813  -0.81999  -0.80873
 Alpha  occ. eigenvalues --   -0.80564  -0.79789  -0.78382  -0.77798  -0.77487
 Alpha  occ. eigenvalues --   -0.77256  -0.74514  -0.74149  -0.73077  -0.72349
 Alpha  occ. eigenvalues --   -0.71423  -0.70385  -0.69510  -0.68424  -0.66036
 Alpha  occ. eigenvalues --   -0.65315  -0.64907  -0.64474  -0.63690  -0.63212
 Alpha  occ. eigenvalues --   -0.62476  -0.62297  -0.61495  -0.61349  -0.61209
 Alpha  occ. eigenvalues --   -0.60701  -0.59888  -0.59140  -0.58873  -0.58602
 Alpha  occ. eigenvalues --   -0.58266  -0.58162  -0.57965  -0.57646  -0.57353
 Alpha  occ. eigenvalues --   -0.56835  -0.56771  -0.56060  -0.55782  -0.55639
 Alpha  occ. eigenvalues --   -0.55126  -0.54898  -0.54685  -0.54580  -0.54458
 Alpha  occ. eigenvalues --   -0.53999  -0.53595  -0.53346  -0.52514  -0.51987
 Alpha  occ. eigenvalues --   -0.51796  -0.51426  -0.51083  -0.50978  -0.50276
 Alpha  occ. eigenvalues --   -0.49989  -0.49698  -0.49101  -0.48859  -0.48654
 Alpha  occ. eigenvalues --   -0.48219  -0.47988  -0.47691  -0.47492  -0.46795
 Alpha  occ. eigenvalues --   -0.46503  -0.46422  -0.45961  -0.45757  -0.45221
 Alpha  occ. eigenvalues --   -0.45033  -0.44854  -0.44593  -0.44263  -0.43928
 Alpha  occ. eigenvalues --   -0.43549  -0.43468  -0.43201  -0.42707  -0.42489
 Alpha  occ. eigenvalues --   -0.42132  -0.42033  -0.41449  -0.40803  -0.40680
 Alpha  occ. eigenvalues --   -0.40467  -0.40151  -0.38802  -0.38567  -0.38105
 Alpha  occ. eigenvalues --   -0.37537  -0.37379  -0.36590  -0.35775  -0.34272
 Alpha  occ. eigenvalues --   -0.33375  -0.32248  -0.31867  -0.31512  -0.30990
 Alpha  occ. eigenvalues --   -0.27454  -0.27201  -0.26434  -0.22322  -0.20880
 Alpha  occ. eigenvalues --   -0.16370  -0.15883
 Alpha virt. eigenvalues --    0.26181   0.26675   0.27283   0.28952   0.30395
 Alpha virt. eigenvalues --    0.32391   0.45479   0.47428   0.48131   0.49010
 Alpha virt. eigenvalues --    0.49530   0.49926   0.50406   0.50981   0.52163
 Alpha virt. eigenvalues --    0.54059   0.54317   0.54584   0.55507   0.55545
 Alpha virt. eigenvalues --    0.56799   0.57015   0.57619   0.58270   0.58733
 Alpha virt. eigenvalues --    0.59422   0.59527   0.59800   0.60003   0.60803
 Alpha virt. eigenvalues --    0.61400   0.62082   0.62405   0.62875   0.63043
 Alpha virt. eigenvalues --    0.63254   0.63606   0.64038   0.64234   0.64480
 Alpha virt. eigenvalues --    0.64721   0.64836   0.65168   0.65647   0.66120
 Alpha virt. eigenvalues --    0.66223   0.66528   0.66775   0.66906   0.67002
 Alpha virt. eigenvalues --    0.67416   0.67554   0.67799   0.67995   0.68378
 Alpha virt. eigenvalues --    0.68772   0.68943   0.69527   0.69645   0.70203
 Alpha virt. eigenvalues --    0.70288   0.70512   0.70747   0.71051   0.71167
 Alpha virt. eigenvalues --    0.71311   0.71431   0.71708   0.72163   0.72354
 Alpha virt. eigenvalues --    0.72576   0.73117   0.73384   0.73498   0.73605
 Alpha virt. eigenvalues --    0.73854   0.74258   0.74638   0.74725   0.74909
 Alpha virt. eigenvalues --    0.75114   0.75417   0.75773   0.75935   0.76015
 Alpha virt. eigenvalues --    0.76629   0.76873   0.77033   0.77334   0.77625
 Alpha virt. eigenvalues --    0.77697   0.78054   0.78413   0.78874   0.79054
 Alpha virt. eigenvalues --    0.79341   0.79773   0.79911   0.80433   0.80725
 Alpha virt. eigenvalues --    0.81082   0.81153   0.81408   0.81634   0.82016
 Alpha virt. eigenvalues --    0.82313   0.83879   0.83977   0.84314   0.84508
 Alpha virt. eigenvalues --    0.85905   0.86045   0.86223   0.86893   0.87394
 Alpha virt. eigenvalues --    0.88251   0.89225   0.90489   0.91112   0.93089
 Alpha virt. eigenvalues --    0.94258   0.94990   0.97761   1.01339   1.03154
 Alpha virt. eigenvalues --    1.10354   1.11342   1.15263   1.15980
          Condensed to atoms (all electrons):
 Mulliken charges:
               1
     1  C   -0.074292
     2  C    0.000165
     3  C   -0.061199
     4  C   -0.089393
     5  C    0.089692
     6  C   -0.012172
     7  N   -0.285715
     8  C    0.017748
     9  C    0.127868
    10  C    0.039930
    11  C   -0.115127
    12  C   -0.105621
    13  C    0.027763
    14  N   -0.291762
    15  C   -0.015620
    16  C   -0.108495
    17  C   -0.102129
    18  C   -0.105896
    19  C   -0.020133
    20  C   -0.110450
    21  C   -0.066444
    22  C    0.319592
    23  O   -0.276978
    24  O   -0.255408
    25  C   -0.055768
    26  C   -0.079434
    27  C   -0.109847
    28  C    0.008712
    29  C   -0.080965
    30  C   -0.065258
    31  C   -0.077279
    32  C    0.082293
    33  C   -0.012560
    34  N   -0.281962
    35  C    0.006735
    36  C    0.124327
    37  C    0.041529
    38  C   -0.100640
    39  C   -0.107514
    40  C    0.039747
    41  N   -0.081068
    42  C   -0.003681
    43  C   -0.097605
    44  C   -0.099289
    45  C   -0.105738
    46  C   -0.005880
    47  C   -0.096638
    48  C   -0.058708
    49  C    0.330575
    50  O   -0.284110
    51  O   -0.257239
    52  C   -0.054850
    53  C   -0.082373
    54  O   -0.463137
    55  H    0.061710
    56  H    0.056340
    57  H    0.058799
    58  H    0.053851
    59  H    0.051352
    60  H    0.054904
    61  H    0.049340
    62  H    0.051288
    63  H    0.050091
    64  H    0.061401
    65  H    0.055097
    66  H    0.051362
    67  H    0.050545
    68  H    0.053025
    69  H    0.062901
    70  H    0.064489
    71  H    0.056679
    72  H    0.052023
    73  H    0.067769
    74  H    0.052002
    75  H    0.065345
    76  H    0.077439
    77  H    0.074704
    78  H    0.072475
    79  H    0.055816
    80  H    0.071959
    81  H    0.076781
    82  H    0.059126
    83  H    0.059009
    84  H    0.053266
    85  H    0.057392
    86  H    0.065389
    87  H    0.054522
    88  H    0.058205
    89  H    0.054235
    90  H    0.053304
    91  H    0.045844
    92  H    0.084087
    93  H    0.057421
    94  H    0.080023
    95  H    0.058453
    96  H    0.058669
    97  H    0.047316
    98  H    0.063253
    99  H    0.098245
   100  H    0.087468
   101  H    0.060723
   102  H    0.096806
   103  H    0.047409
   104  H    0.069364
   105  H    0.079371
   106  H    0.067985
   107  H    0.074274
   108  H    0.065872
   109  H    0.069514
   110  H    0.065669
 Sum of Mulliken charges =  -0.00000
 Mulliken charges with hydrogens summed into heavy atoms:
               1
     1  C   -0.012582
     2  C    0.000165
     3  C   -0.004858
     4  C   -0.030594
     5  C    0.089692
     6  C   -0.012172
     7  N   -0.285715
     8  C    0.017748
     9  C    0.127868
    10  C    0.093781
    11  C   -0.008870
    12  C   -0.004993
    13  C    0.027763
    14  N   -0.291762
    15  C    0.095872
    16  C   -0.002036
    17  C    0.001441
    18  C    0.021493
    19  C    0.088569
    20  C    0.009321
    21  C   -0.001099
    22  C    0.319592
    23  O   -0.276978
    24  O   -0.255408
    25  C    0.168850
    26  C    0.125121
    27  C    0.008288
    28  C    0.008712
    29  C   -0.027699
    30  C   -0.007866
    31  C   -0.011890
    32  C    0.082293
    33  C   -0.012560
    34  N   -0.281962
    35  C    0.006735
    36  C    0.124327
    37  C    0.096051
    38  C    0.011801
    39  C   -0.008366
    40  C    0.039747
    41  N   -0.081068
    42  C    0.137827
    43  C    0.040871
    44  C    0.006697
    45  C    0.055760
    46  C    0.142311
    47  C    0.047577
    48  C    0.010656
    49  C    0.330575
    50  O   -0.284110
    51  O   -0.257239
    52  C    0.166781
    53  C    0.118682
    54  O   -0.463137
 Electronic spatial extent (au):  <R**2>=          37026.9115
 Charge=             -0.0000 electrons
 Dipole moment (field-independent basis, Debye):
    X=              2.0871    Y=              0.1301    Z=             -0.7679  Tot=              2.2276
 Quadrupole moment (field-independent basis, Debye-Ang):
   XX=           -295.8519   YY=           -303.0738   ZZ=           -293.7347
   XY=              1.1918   XZ=             15.8040   YZ=              2.8636
 Traceless Quadrupole moment (field-independent basis, Debye-Ang):
   XX=              1.7015   YY=             -5.5203   ZZ=              3.8188
   XY=              1.1918   XZ=             15.8040   YZ=              2.8636
 Octapole moment (field-independent basis, Debye-Ang**2):
  XXX=            106.5343  YYY=            -27.8022  ZZZ=             27.8261  XYY=             25.2570
  XXY=             16.3092  XXZ=             41.2218  XZZ=            -22.9503  YZZ=            -31.9876
  YYZ=             21.6148  XYZ=            -13.8261
 Hexadecapole moment (field-independent basis, Debye-Ang**3):
 XXXX=         -31059.3121 YYYY=          -9127.2494 ZZZZ=          -4544.9856 XXXY=            370.9134
 XXXZ=             78.7946 YYYX=            182.5993 YYYZ=             34.9721 ZZZX=           -165.3312
 ZZZY=             -6.5352 XXYY=          -7145.5779 XXZZ=          -5970.5624 YYZZ=          -2233.3969
 XXYZ=            -89.5069 YYXZ=            -22.4373 ZZXY=            113.6725
 N-N= 8.179557433019D+03 E-N=-2.173548446909D+04  KE= 2.279175184077D+03
 ******************************Gaussian NBO Version 3.1******************************
             N A T U R A L   A T O M I C   O R B I T A L   A N D
          N A T U R A L   B O N D   O R B I T A L   A N A L Y S I S
 ******************************Gaussian NBO Version 3.1******************************
       /RESON  / : Allow strongly delocalized NBO set
       /NLMO   / : Form Natural Localized Molecular Orbitals
       /NMR /    : Analyze NMR Sheilding Tensor 

 Analyzing the SCF density

 Job title: Pleiokomenine_C_2                                               

 Storage needed:    355564 in NPA,    438187 in NBO,   2133784 in NLMO ( 104796000 available)
 GSVD:  LWork=     -108884 too small for GESVD, short by      536270 words or      536270 for optimal perf.


 NATURAL POPULATIONS:  Natural atomic orbital occupancies 
                                                          
   NAO  Atom  No  lang   Type(AO)    Occupancy      Energy
 ----------------------------------------------------------
     1    C    1  S      Cor( 1S)     1.99993     -10.94418
     2    C    1  S      Val( 2S)     1.07803      -0.17496
     3    C    1  px     Val( 2p)     0.99471       0.11086
     4    C    1  py     Val( 2p)     0.97999       0.15796
     5    C    1  pz     Val( 2p)     1.00330       0.05431
 
     6    C    2  S      Cor( 1S)     1.99990     -10.95578
     7    C    2  S      Val( 2S)     1.07716      -0.18235
     8    C    2  px     Val( 2p)     0.95286       0.13392
     9    C    2  py     Val( 2p)     0.95826       0.17556
    10    C    2  pz     Val( 2p)     0.99813       0.05818
 
    11    C    3  S      Cor( 1S)     1.99994     -10.94738
    12    C    3  S      Val( 2S)     1.08384      -0.18167
    13    C    3  px     Val( 2p)     0.97885       0.12347
    14    C    3  py     Val( 2p)     0.97584       0.15710
    15    C    3  pz     Val( 2p)     0.99430       0.05481
 
    16    C    4  S      Cor( 1S)     1.99993     -10.94034
    17    C    4  S      Val( 2S)     1.07216      -0.17279
    18    C    4  px     Val( 2p)     1.00370       0.11192
    19    C    4  py     Val( 2p)     0.97181       0.16284
    20    C    4  pz     Val( 2p)     1.03861       0.04161
 
    21    C    5  S      Cor( 1S)     1.99985     -10.98727
    22    C    5  S      Val( 2S)     1.05935      -0.18355
    23    C    5  px     Val( 2p)     0.90221       0.12467
    24    C    5  py     Val( 2p)     0.96344       0.16657
    25    C    5  pz     Val( 2p)     0.96212       0.05338
 
    26    C    6  S      Cor( 1S)     1.99990     -10.94560
    27    C    6  S      Val( 2S)     1.08251      -0.18601
    28    C    6  px     Val( 2p)     0.98452       0.13118
    29    C    6  py     Val( 2p)     0.94954       0.15263
    30    C    6  pz     Val( 2p)     1.00724       0.06122
 
    31    N    7  S      Cor( 1S)     1.99998     -15.26909
    32    N    7  S      Val( 2S)     1.40641      -0.59508
    33    N    7  px     Val( 2p)     1.43083      -0.12079
    34    N    7  py     Val( 2p)     1.07290       0.01142
    35    N    7  pz     Val( 2p)     1.36398      -0.09933
 
    36    C    8  S      Cor( 1S)     1.99996     -11.00716
    37    C    8  S      Val( 2S)     1.10895      -0.23236
    38    C    8  px     Val( 2p)     0.97090       0.07502
    39    C    8  py     Val( 2p)     0.96145       0.11101
    40    C    8  pz     Val( 2p)     0.93936       0.10816
 
    41    C    9  S      Cor( 1S)     1.99996     -11.05078
    42    C    9  S      Val( 2S)     1.11233      -0.25710
    43    C    9  px     Val( 2p)     0.91980       0.08601
    44    C    9  py     Val( 2p)     0.84301       0.12653
    45    C    9  pz     Val( 2p)     0.95338       0.07922
 
    46    C   10  S      Cor( 1S)     1.99993     -11.01935
    47    C   10  S      Val( 2S)     1.09763      -0.22167
    48    C   10  px     Val( 2p)     0.99304       0.08401
    49    C   10  py     Val( 2p)     0.94669       0.08017
    50    C   10  pz     Val( 2p)     0.88891       0.11995
 
    51    C   11  S      Cor( 1S)     1.99994     -10.98070
    52    C   11  S      Val( 2S)     1.10397      -0.21528
    53    C   11  px     Val( 2p)     0.99907       0.08236
    54    C   11  py     Val( 2p)     0.99094       0.08651
    55    C   11  pz     Val( 2p)     0.99141       0.08197
 
    56    C   12  S      Cor( 1S)     1.99996     -10.97854
    57    C   12  S      Val( 2S)     1.09125      -0.20067
    58    C   12  px     Val( 2p)     1.00952       0.08680
    59    C   12  py     Val( 2p)     0.98036       0.08825
    60    C   12  pz     Val( 2p)     0.99299       0.08884
 
    61    C   13  S      Cor( 1S)     1.99998     -11.00584
    62    C   13  S      Val( 2S)     1.10477      -0.22937
    63    C   13  px     Val( 2p)     0.93903       0.10860
    64    C   13  py     Val( 2p)     0.95061       0.10757
    65    C   13  pz     Val( 2p)     0.95556       0.09776
 
    66    N   14  S      Cor( 1S)     1.99999     -15.24213
    67    N   14  S      Val( 2S)     1.42889      -0.58678
    68    N   14  px     Val( 2p)     1.31296      -0.06024
    69    N   14  py     Val( 2p)     1.26513      -0.04073
    70    N   14  pz     Val( 2p)     1.27278      -0.04835
 
    71    C   15  S      Cor( 1S)     1.99993     -11.01171
    72    C   15  S      Val( 2S)     1.06951      -0.19350
    73    C   15  px     Val( 2p)     0.99546       0.07513
    74    C   15  py     Val( 2p)     0.89466       0.11775
    75    C   15  pz     Val( 2p)     1.00231       0.07749
 
    76    C   16  S      Cor( 1S)     1.99997     -10.97897
    77    C   16  S      Val( 2S)     1.08079      -0.19223
    78    C   16  px     Val( 2p)     1.01981       0.08546
    79    C   16  py     Val( 2p)     0.99629       0.08768
    80    C   16  pz     Val( 2p)     0.97823       0.09136
 
    81    C   17  S      Cor( 1S)     1.99996     -10.98110
    82    C   17  S      Val( 2S)     1.08569      -0.19630
    83    C   17  px     Val( 2p)     1.00945       0.08587
    84    C   17  py     Val( 2p)     0.98592       0.08916
    85    C   17  pz     Val( 2p)     0.98755       0.09025
 
    86    C   18  S      Cor( 1S)     1.99995     -10.97636
    87    C   18  S      Val( 2S)     1.09172      -0.19667
    88    C   18  px     Val( 2p)     1.01866       0.09399
    89    C   18  py     Val( 2p)     0.98687       0.08598
    90    C   18  pz     Val( 2p)     0.97901       0.09065
 
    91    C   19  S      Cor( 1S)     1.99994     -11.00144
    92    C   19  S      Val( 2S)     1.07260      -0.18719
    93    C   19  px     Val( 2p)     0.89852       0.11715
    94    C   19  py     Val( 2p)     0.99500       0.08377
    95    C   19  pz     Val( 2p)     1.00050       0.08431
 
    96    C   20  S      Cor( 1S)     1.99992     -10.98565
    97    C   20  S      Val( 2S)     1.09989      -0.21359
    98    C   20  px     Val( 2p)     0.96920       0.08300
    99    C   20  py     Val( 2p)     0.97004       0.09037
   100    C   20  pz     Val( 2p)     1.03446       0.07397
 
   101    C   21  S      Cor( 1S)     1.99994     -11.00953
   102    C   21  S      Val( 2S)     1.11092      -0.24019
   103    C   21  px     Val( 2p)     0.97219       0.08031
   104    C   21  py     Val( 2p)     0.99097       0.06731
   105    C   21  pz     Val( 2p)     1.01038       0.06282
 
   106    C   22  S      Cor( 1S)     1.99991     -11.11287
   107    C   22  S      Val( 2S)     1.05473      -0.26170
   108    C   22  px     Val( 2p)     0.87821       0.07794
   109    C   22  py     Val( 2p)     0.80867       0.10661
   110    C   22  pz     Val( 2p)     0.85567       0.08797
 
   111    O   23  S      Cor( 1S)     1.99999     -20.09926
   112    O   23  S      Val( 2S)     1.80823      -1.05905
   113    O   23  px     Val( 2p)     1.78003      -0.30016
   114    O   23  py     Val( 2p)     1.39482      -0.15492
   115    O   23  pz     Val( 2p)     1.32807      -0.12830
 
   116    O   24  S      Cor( 1S)     1.99999     -20.21619
   117    O   24  S      Val( 2S)     1.72988      -1.02868
   118    O   24  px     Val( 2p)     1.25825      -0.11423
   119    O   24  py     Val( 2p)     1.62618      -0.27799
   120    O   24  pz     Val( 2p)     1.65266      -0.29481
 
   121    C   25  S      Cor( 1S)     1.99984     -11.04627
   122    C   25  S      Val( 2S)     1.07700      -0.22792
   123    C   25  px     Val( 2p)     0.87131       0.07051
   124    C   25  py     Val( 2p)     1.04306       0.03579
   125    C   25  pz     Val( 2p)     0.97413       0.05481
 
   126    C   26  S      Cor( 1S)     1.99992     -11.01543
   127    C   26  S      Val( 2S)     1.06551      -0.19620
   128    C   26  px     Val( 2p)     1.00813       0.06355
   129    C   26  py     Val( 2p)     1.01230       0.06014
   130    C   26  pz     Val( 2p)     0.93102       0.09001
 
   131    C   27  S      Cor( 1S)     1.99995     -10.98444
   132    C   27  S      Val( 2S)     1.08300      -0.18968
   133    C   27  px     Val( 2p)     0.98044       0.09406
   134    C   27  py     Val( 2p)     1.02258       0.08478
   135    C   27  pz     Val( 2p)     1.00119       0.08928
 
   136    C   28  S      Cor( 1S)     1.99990     -10.96247
   137    C   28  S      Val( 2S)     1.08114      -0.18922
   138    C   28  px     Val( 2p)     0.94946       0.11778
   139    C   28  py     Val( 2p)     0.96829       0.14968
   140    C   28  pz     Val( 2p)     0.97268       0.09228
 
   141    C   29  S      Cor( 1S)     1.99992     -10.94802
   142    C   29  S      Val( 2S)     1.07689      -0.18024
   143    C   29  px     Val( 2p)     0.99252       0.09487
   144    C   29  py     Val( 2p)     0.98652       0.13141
   145    C   29  pz     Val( 2p)     1.01157       0.07676
 
   146    C   30  S      Cor( 1S)     1.99994     -10.94828
   147    C   30  S      Val( 2S)     1.08340      -0.18355
   148    C   30  px     Val( 2p)     0.98858       0.10306
   149    C   30  py     Val( 2p)     0.98523       0.13331
   150    C   30  pz     Val( 2p)     0.98417       0.09086
 
   151    C   31  S      Cor( 1S)     1.99993     -10.94578
   152    C   31  S      Val( 2S)     1.07614      -0.17634
   153    C   31  px     Val( 2p)     1.00445       0.09702
   154    C   31  py     Val( 2p)     0.97934       0.13930
   155    C   31  pz     Val( 2p)     1.00788       0.07823
 
   156    C   32  S      Cor( 1S)     1.99985     -10.98167
   157    C   32  S      Val( 2S)     1.06575      -0.18752
   158    C   32  px     Val( 2p)     0.90383       0.12633
   159    C   32  py     Val( 2p)     0.97078       0.14299
   160    C   32  pz     Val( 2p)     0.95850       0.07886
 
   161    C   33  S      Cor( 1S)     1.99990     -10.95278
   162    C   33  S      Val( 2S)     1.08790      -0.19618
   163    C   33  px     Val( 2p)     0.98385       0.10092
   164    C   33  py     Val( 2p)     0.94900       0.13579
   165    C   33  pz     Val( 2p)     0.99681       0.09067
 
   166    N   34  S      Cor( 1S)     1.99998     -15.25960
   167    N   34  S      Val( 2S)     1.44076      -0.60071
   168    N   34  px     Val( 2p)     1.42167      -0.11460
   169    N   34  py     Val( 2p)     1.34983      -0.09136
   170    N   34  pz     Val( 2p)     1.06103       0.03859
 
   171    C   35  S      Cor( 1S)     1.99996     -11.01156
   172    C   35  S      Val( 2S)     1.10524      -0.23731
   173    C   35  px     Val( 2p)     0.95994       0.09452
   174    C   35  py     Val( 2p)     0.95701       0.10840
   175    C   35  pz     Val( 2p)     0.97781       0.06427
 
   176    C   36  S      Cor( 1S)     1.99996     -11.04579
   177    C   36  S      Val( 2S)     1.12154      -0.26061
   178    C   36  px     Val( 2p)     0.92427       0.10453
   179    C   36  py     Val( 2p)     0.86755       0.12949
   180    C   36  pz     Val( 2p)     0.91761       0.07687
 
   181    C   37  S      Cor( 1S)     1.99991     -11.03506
   182    C   37  S      Val( 2S)     1.10960      -0.25177
   183    C   37  px     Val( 2p)     0.98221       0.06177
   184    C   37  py     Val( 2p)     0.85223       0.08824
   185    C   37  pz     Val( 2p)     0.98378       0.06650
 
   186    C   38  S      Cor( 1S)     1.99991     -10.97462
   187    C   38  S      Val( 2S)     1.11159      -0.21227
   188    C   38  px     Val( 2p)     1.00936       0.08527
   189    C   38  py     Val( 2p)     0.98711       0.09960
   190    C   38  pz     Val( 2p)     0.95788       0.10226
 
   191    C   39  S      Cor( 1S)     1.99996     -10.97587
   192    C   39  S      Val( 2S)     1.09006      -0.19737
   193    C   39  px     Val( 2p)     1.01879       0.08602
   194    C   39  py     Val( 2p)     0.97908       0.08774
   195    C   39  pz     Val( 2p)     0.99102       0.09285
 
   196    C   40  S      Cor( 1S)     1.99998     -11.01189
   197    C   40  S      Val( 2S)     1.09756      -0.22549
   198    C   40  px     Val( 2p)     0.93177       0.10840
   199    C   40  py     Val( 2p)     0.95416       0.10166
   200    C   40  pz     Val( 2p)     0.95870       0.09911
 
   201    N   41  S      Cor( 1S)     1.99999     -15.42026
   202    N   41  S      Val( 2S)     1.39318      -0.66017
   203    N   41  px     Val( 2p)     1.20254      -0.12582
   204    N   41  py     Val( 2p)     1.16590      -0.10524
   205    N   41  pz     Val( 2p)     1.20496      -0.11461
 
   206    C   42  S      Cor( 1S)     1.99992     -11.03995
   207    C   42  S      Val( 2S)     1.09131      -0.23701
   208    C   42  px     Val( 2p)     1.00676       0.04938
   209    C   42  py     Val( 2p)     0.96983       0.05784
   210    C   42  pz     Val( 2p)     0.88242       0.08355
 
   211    C   43  S      Cor( 1S)     1.99995     -10.99306
   212    C   43  S      Val( 2S)     1.08695      -0.20687
   213    C   43  px     Val( 2p)     0.95322       0.09242
   214    C   43  py     Val( 2p)     0.99929       0.07671
   215    C   43  pz     Val( 2p)     1.02465       0.07776
 
   216    C   44  S      Cor( 1S)     1.99995     -10.98803
   217    C   44  S      Val( 2S)     1.09152      -0.20647
   218    C   44  px     Val( 2p)     1.00855       0.08136
   219    C   44  py     Val( 2p)     0.97285       0.09023
   220    C   44  pz     Val( 2p)     0.98967       0.08465
 
   221    C   45  S      Cor( 1S)     1.99993     -10.98801
   222    C   45  S      Val( 2S)     1.09906      -0.21230
   223    C   45  px     Val( 2p)     0.99120       0.08300
   224    C   45  py     Val( 2p)     0.97706       0.07754
   225    C   45  pz     Val( 2p)     1.00666       0.08159
 
   226    C   46  S      Cor( 1S)     1.99993     -11.03455
   227    C   46  S      Val( 2S)     1.09447      -0.23565
   228    C   46  px     Val( 2p)     0.87041       0.08844
   229    C   46  py     Val( 2p)     1.00446       0.04895
   230    C   46  pz     Val( 2p)     0.98580       0.05551
 
   231    C   47  S      Cor( 1S)     1.99991     -10.97543
   232    C   47  S      Val( 2S)     1.10376      -0.20352
   233    C   47  px     Val( 2p)     0.98954       0.10017
   234    C   47  py     Val( 2p)     1.02339       0.09387
   235    C   47  pz     Val( 2p)     0.94191       0.10456
 
   236    C   48  S      Cor( 1S)     1.99993     -11.00644
[...]

 Contributions to Isotropic shielding for atom   94 (    31.0852 ppm):
                         Standard Origin              Atomic Origin
 NLMO      Total    Paramagnetic  Diamagnetic   Paramagnetic  Diamagnetic
   89      -0.5673        0.4169      -0.9842        -1.1428       0.5755
   98      -0.0950        0.2192      -0.3142        -1.0047       0.9097
   99      -0.5763        0.4782      -1.0545        -1.4460       0.8697
  102       1.7938       -1.0756       2.8694         0.9009       0.8929
  103       0.0557        1.2478      -1.1921        -0.9254       0.9811
  105       0.7244        2.2857      -1.5613        -0.4417       1.1661
  106      25.7718       -0.1062      25.8780         0.5181      25.2537
  107       1.6814        3.6657      -1.9844        -0.1516       1.8330
  108       0.1044       -0.2050       0.3094        -0.8977       1.0021
  195       0.2239       -1.0595       1.2834         1.1479      -0.9239
 Sum       29.1168        5.8672      23.2496        -3.4430      32.5598

 Contributions to Isotropic shielding for atom   95 (    32.2239 ppm):
                         Standard Origin              Atomic Origin
 NLMO      Total    Paramagnetic  Diamagnetic   Paramagnetic  Diamagnetic
   89      -0.3191        0.3232      -0.6422        -1.0475       0.7284
  102       1.6165        0.0613       1.5552         0.6565       0.9600
  103       0.2999        1.3573      -1.0574        -0.5833       0.8832
  104       0.0876        1.1839      -1.0963        -0.8628       0.9505
  105       0.5834        3.0243      -2.4409        -0.5244       1.1078
  106       1.9234        3.5862      -1.6628         0.0820       1.8414
  107      26.3335       -0.2012      26.5347         0.5297      25.8038
  109       0.0592       -0.2591       0.3183        -1.0599       1.1191
 Sum       30.5846        9.0759      21.5087        -2.8096      33.3943

 Contributions to Isotropic shielding for atom   96 (    32.0329 ppm):
                         Standard Origin              Atomic Origin
 NLMO      Total    Paramagnetic  Diamagnetic   Paramagnetic  Diamagnetic
   89      -0.4240        0.3708      -0.7948        -1.1386       0.7146
   94      -0.1952        1.4838      -1.6790        -0.7192       0.5240
   97       0.9631        1.6709      -0.7078         0.0018       0.9614
   98      -0.3487        1.7677      -2.1164        -1.3256       0.9769
  105       0.6565        2.8251      -2.1687        -0.4123       1.0688
  106       0.0756        0.8513      -0.7757        -1.0301       1.1057
  107       0.3236        1.0650      -0.7415        -0.5452       0.8688
  108      26.4684       -0.4008      26.8691         0.7258      25.7426
  109       1.8946        3.1382      -1.2437         0.1656       1.7290
 Sum       29.4138       12.7722      16.6417        -4.2779      33.6917

 Contributions to Isotropic shielding for atom   97 (    32.5513 ppm):
                         Standard Origin              Atomic Origin
 NLMO      Total    Paramagnetic  Diamagnetic   Paramagnetic  Diamagnetic
   90      -0.1430        1.1741      -1.3171        -0.8143       0.6713
   94      -0.2151        0.7532      -0.9683        -1.1325       0.9174
   97       1.8856       -1.0823       2.9679         0.9365       0.9490
  105       1.3469       -0.0679       1.4148         0.2300       1.1168
  107       0.0534        0.1250      -0.0716        -0.9637       1.0171
  108       1.4749        4.0279      -2.5531        -0.3638       1.8387
  109      26.5389        0.1919      26.3470         0.4857      26.0532
 Sum       30.9415        5.1219      25.8196        -1.6220      32.5635

 Contributions to Isotropic shielding for atom   98 (    33.1970 ppm):
                         Standard Origin              Atomic Origin
 NLMO      Total    Paramagnetic  Diamagnetic   Paramagnetic  Diamagnetic
   71      -0.0036       -1.1935       1.1899        -1.0810       1.0774
   76      -0.2047       -1.0218       0.8171        -0.7960       0.5913
   80       0.3143       -1.0330       1.3473        -0.7706       1.0848
   82       0.0943       -0.9281       1.0223        -0.5828       0.6771
   85       1.0206        0.6860       0.3347         0.3783       0.6423
  110       1.3949       -0.8136       2.2085         0.5797       0.8152
  111      26.0137        0.5539      25.4599         0.4376      25.5762
  112       1.9669        0.5646       1.4022         0.0379       1.9290
  121       0.0820       -1.0285       1.1105        -0.6946       0.7767
 Sum       30.6785       -4.2140      34.8924        -2.4916      33.1700

 Contributions to Isotropic shielding for atom   99 (    31.2852 ppm):
                         Standard Origin              Atomic Origin
 NLMO      Total    Paramagnetic  Diamagnetic   Paramagnetic  Diamagnetic
   85       0.2760        1.9109      -1.6349        -0.5636       0.8396
   87       0.0094       -1.1792       1.1886        -0.8341       0.8435
  110       1.0236        0.7444       0.2791         0.2759       0.7476
  111       2.0128       -0.0271       2.0399         0.0905       1.9223
  112      25.3856        0.1104      25.2753         0.5301      24.8555
  113       0.0469       -0.2016       0.2485        -0.9625       1.0094
  115       0.0573       -0.9865       1.0438        -0.5086       0.5658
  118       0.7419       -1.3194       2.0613        -0.1362       0.8780
  120       1.1344       -0.6870       1.8215         0.4667       0.6677
  121      -0.0513       -3.0040       2.9527        -1.1476       1.0963
  123       0.2526       -1.0607       1.3133        -0.4572       0.7098
  191      -0.7656        1.6393      -2.4049         0.3141      -1.0797
  195      -0.1097        1.0134      -1.1231         0.8888      -0.9986
 Sum       30.0138       -3.0472      33.0610        -2.0435      32.0573

 Contributions to Isotropic shielding for atom  100 (    31.0071 ppm):
                         Standard Origin              Atomic Origin
 NLMO      Total    Paramagnetic  Diamagnetic   Paramagnetic  Diamagnetic
  100      -0.0036        1.6567      -1.6604        -0.7799       0.7763
  101       0.1489       -1.1405       1.2893        -0.8698       1.0187
  103      -0.0532       -1.4466       1.3934        -0.8795       0.8263
  110       1.0073       -0.0690       1.0763         0.0355       0.9718
  112       0.1417       -0.3736       0.5154        -0.8968       1.0386
  113      25.7380        0.5914      25.1466         0.8130      24.9250
  114       1.9448       -0.3694       2.3141         0.2550       1.6898
  195       0.0366        1.1100      -1.0734         0.8498      -0.8132
 Sum       28.9604       -0.0410      29.0014        -1.4728      30.4332

 Contributions to Isotropic shielding for atom  101 (    31.2967 ppm):
                         Standard Origin              Atomic Origin
 NLMO      Total    Paramagnetic  Diamagnetic   Paramagnetic  Diamagnetic
   71       0.1747       -0.7455       0.9202        -0.9590       1.1337
   84       0.1729       -0.9474       1.1203        -0.6521       0.8250
   89       0.9643       -0.6691       1.6333         0.0667       0.8976
   90      -0.0812       -1.0668       0.9856        -0.7976       0.7164
   99       0.5647       -0.5430       1.1077        -0.1620       0.7266
  100       0.3603        1.3178      -0.9575        -0.0988       0.4591
  103       0.1520       -0.9718       1.1238        -0.5803       0.7323
  104      -0.0061       -1.4863       1.4801        -0.8075       0.8014
  110       1.0792       -0.6952       1.7745         0.2471       0.8321
  113       1.7037       -0.2948       1.9985        -0.1282       1.8319
  114      26.2155        0.6159      25.5996         0.6192      25.5963
 Sum       31.3001       -5.4861      36.7862        -3.2525      34.5526

 Contributions to Isotropic shielding for atom  102 (    30.1642 ppm):
                         Standard Origin              Atomic Origin
 NLMO      Total    Paramagnetic  Diamagnetic   Paramagnetic  Diamagnetic
   89      -0.6447        0.4032      -1.0480        -1.5439       0.8991
   97      -0.1918        0.7016      -0.8934        -1.0253       0.8335
   98       1.5249       -0.7311       2.2559         0.5921       0.9327
  106      -0.2584       -1.0236       0.7652        -0.8187       0.5603
  115       1.3149       -0.1817       1.4965         0.4423       0.8725
  116      25.3830        0.0657      25.3174         0.6143      24.7687
  117       1.0154        3.8185      -2.8031        -0.9081       1.9235
  118      -0.3851        0.4112      -0.7964        -1.4545       1.0694
  119       0.3190        1.2239      -0.9050        -0.1746       0.4935
  122       0.7895       -1.0039       1.7934        -0.4852       1.2747
  193      -0.9813        0.7483      -1.7297         0.3333      -1.3146
 Sum       27.8851        4.4321      23.4529        -4.4282      32.3132

 Contributions to Isotropic shielding for atom  103 (    31.5567 ppm):
                         Standard Origin              Atomic Origin
 NLMO      Total    Paramagnetic  Diamagnetic   Paramagnetic  Diamagnetic
   94      -0.3686        1.3335      -1.7022        -1.3374       0.9688
   97      -0.2225        1.5129      -1.7354        -0.8221       0.5996
   98       0.8776        1.8295      -0.9519        -0.0731       0.9507
  108      -0.0382       -1.1199       1.0817        -0.8302       0.7921
  115       0.6565        3.1238      -2.4673        -0.4538       1.1103
  116       1.8322        3.7115      -1.8793        -0.1833       2.0155
  117      26.9081       -0.7951      27.7031         0.8857      26.0223
  119      -0.1857        0.6972      -0.8829        -1.3000       1.1143
  122       0.2873       -0.4365       0.7238        -0.8376       1.1249
 Sum       29.7467        9.8570      19.8897        -4.9518      34.6985

 Contributions to Isotropic shielding for atom  104 (    31.0668 ppm):
                         Standard Origin              Atomic Origin
 NLMO      Total    Paramagnetic  Diamagnetic   Paramagnetic  Diamagnetic
   81      -0.3877        1.4102      -1.7979        -1.2941       0.9064
   86      -0.3219        1.9707      -2.2925        -1.5359       1.2140
   87       1.4170        1.6352      -0.2182         0.3617       1.0553
   93      -0.0859       -1.8441       1.7582        -0.8548       0.7689
  115       0.7264        4.4287      -3.7023        -0.4836       1.2100
  117      -0.0571       -0.6311       0.5740        -1.2013       1.1443
  118       0.6187        4.5243      -3.9056        -0.4431       1.0617
  119      26.1188       -0.8451      26.9639         0.6246      25.4943
  122      -0.2290       -0.0764      -0.1525        -1.6932       1.4643
 Sum       27.7994       10.5723      17.2271        -6.5197      34.3190

 Contributions to Isotropic shielding for atom  105 (    30.6126 ppm):
                         Standard Origin              Atomic Origin
 NLMO      Total    Paramagnetic  Diamagnetic   Paramagnetic  Diamagnetic
  120      -0.7486        0.3863      -1.1349        -1.6377       0.8891
  121      -0.1449        0.8309      -0.9758        -1.6944       1.5495
  122      -0.2206        0.2407      -0.4613        -1.1110       0.8904
  123       2.5979       -4.9455       7.5434         1.1912       1.4066
  124      25.7939        1.0352      24.7587         0.7239      25.0700
  125       1.6257       -0.3443       1.9700        -0.2396       1.8653
  126       1.4812        0.8682       0.6130        -0.5558       2.0369
  193       0.6600        1.0378      -0.3777         0.7000      -0.0399
  194       0.2123       -0.9425       1.1548        -0.3401       0.5525
 Sum       31.2568       -1.8335      33.0902        -2.9636      34.2204

 Contributions to Isotropic shielding for atom  106 (    30.6678 ppm):
                         Standard Origin              Atomic Origin
 NLMO      Total    Paramagnetic  Diamagnetic   Paramagnetic  Diamagnetic
  120      -1.1151        0.6448      -1.7599        -2.0117       0.8967
  121      -0.3582        1.7554      -2.1135        -1.8995       1.5414
  122      -0.8200        0.3354      -1.1555        -1.6045       0.7844
  123       1.0703        0.2905       0.7798        -0.4282       1.4985
  124       1.9297       -0.9767       2.9064         0.0555       1.8742
  125      26.3243        0.6016      25.7227         0.9718      25.3525
  126       1.1770        3.6784      -2.5015        -0.8557       2.0326
  191       0.4510       -1.3093       1.7604         1.2348      -0.7838
  193       1.2931       -0.2756       1.5687         1.3414      -0.0483
 Sum       29.9522        4.7446      25.2076        -3.1960      33.1482

 Contributions to Isotropic shielding for atom  107 (    30.6606 ppm):
                         Standard Origin              Atomic Origin
 NLMO      Total    Paramagnetic  Diamagnetic   Paramagnetic  Diamagnetic
  120      -0.5246        0.1349      -0.6595        -1.1607       0.6361
  121      -0.0163        0.7371      -0.7535        -1.0526       1.0363
  123       0.3570        3.6175      -3.2604        -1.7284       2.0854
  124       1.6842        0.6437       1.0405        -0.3179       2.0021
  125       0.9243        3.4634      -2.5391        -1.0513       1.9756
  126      26.2000        0.3734      25.8267         0.9159      25.2842
  193       0.6581       -1.1183       1.7764         1.1247      -0.4667
 Sum       29.2827        7.8517      21.4310        -3.2704      32.5531

 Contributions to Isotropic shielding for atom  108 (    31.7316 ppm):
                         Standard Origin              Atomic Origin
 NLMO      Total    Paramagnetic  Diamagnetic   Paramagnetic  Diamagnetic
   76      -0.5728       -0.3696      -0.2032        -1.4179       0.8451
   82       1.8958       -2.6492       4.5450         1.0925       0.8033
   85      -0.1423        0.3257      -0.4680        -1.0691       0.9268
  121       0.0925       -0.9222       1.0147        -0.8006       0.8931
  127      26.0002        0.9424      25.0578         0.5512      25.4490
  128       1.8336        1.0804       0.7532         0.0147       1.8189
  129       1.8138        0.1149       1.6989        -0.0850       1.8988
  191      -0.3721        0.7344      -1.1065         0.6149      -0.9870
 Sum       30.5488       -0.7431      31.2919        -1.0992      31.6480

 Contributions to Isotropic shielding for atom  109 (    31.8393 ppm):
                         Standard Origin              Atomic Origin
 NLMO      Total    Paramagnetic  Diamagnetic   Paramagnetic  Diamagnetic
   76      -0.4414       -0.1380      -0.3034        -1.2771       0.8356
   82       0.6732        1.9295      -1.2563        -0.6261       1.2993
   87      -0.1449        0.3390      -0.4839        -1.0828       0.9379
  118       0.0928       -0.1611       0.2539        -0.9078       1.0006
  121      -0.3647        0.1203      -0.4850        -1.4561       1.0915
  127       2.0715       -0.2570       2.3285         0.2941       1.7774
  128      26.2208        0.1700      26.0509         0.7418      25.4790
  129       1.5039        3.2380      -1.7341        -0.4993       2.0033
  191       0.1160       -0.2003       0.3163         1.0750      -0.9590
 Sum       29.7272        5.0402      24.6870        -3.7383      33.4655

 Contributions to Isotropic shielding for atom  110 (    31.2069 ppm):
                         Standard Origin              Atomic Origin
 NLMO      Total    Paramagnetic  Diamagnetic   Paramagnetic  Diamagnetic
   75      -0.3781        0.4873      -0.8654        -1.0832       0.7051
   76      -0.6945       -0.1312      -0.5633        -1.9963       1.3018
   79      -0.2493        0.1455      -0.3947        -1.0977       0.8485
   82       0.9884        0.7209       0.2675        -0.2262       1.2146
  127       2.0595       -0.6240       2.6835         0.2193       1.8402
  128       1.4229        3.2442      -1.8213        -0.5682       1.9911
  129      26.2332        0.2548      25.9784         0.6915      25.5417
 Sum       29.3821        4.0975      25.2846        -4.0608      33.4429
 
 1\1\GINC-PCSN02\SP\RHF\STO-3G\C45H56N4O5\ABENIDD\30-May-2024\0\\# nmr=
 giao hf/sto-3g pop=nbo geom=connectivity\\Pleiokomenine_C_2\\0,1\C,0,0
 .,0.,0.\C,0,1.4013,0.,0.\C,0,2.0876,1.2315,0.\C,0,1.3954,2.4516,-0.020
 6\C,0,0.0121,2.4392,-0.0742\C,0,-0.669,1.2118,-0.0527\N,0,-0.8769,3.54
 3,-0.1789\C,0,-2.1535,1.4723,-0.0579\C,0,-2.1067,2.9059,-0.719\C,0,-3.
 0931,0.5711,-0.8751\C,0,-1.9551,2.7421,-2.2958\C,0,-3.1542,2.0002,-2.8
 981\C,0,-4.0355,1.4615,-1.7548\N,0,-3.7506,-0.2838,0.1184\C,0,-4.9445,
 -0.9734,-0.3526\C,0,-5.914,-0.1203,-1.1691\C,0,-5.1939,0.6138,-2.2991\
 C,0,-2.629,1.3064,1.4043\C,0,-3.9173,0.496,1.3381\C,0,-4.5779,2.7316,-
 1.014\C,0,-3.4308,3.6696,-0.5448\C,0,-3.7036,4.271,0.8224\O,0,-4.5378,
 3.8579,1.6186\O,0,-2.946,5.3862,1.0184\C,0,-3.1196,5.995,2.2976\C,0,-0
 .3403,4.7622,-0.7646\C,0,2.1601,-1.3098,-0.0382\C,0,2.0799,-1.9879,-1.
 3912\C,0,0.9629,-2.7747,-1.7134\C,0,3.0753,-1.7569,-2.3663\C,0,2.9746,
 -2.3031,-3.6518\C,0,1.8597,-3.0602,-3.9627\C,0,0.8538,-3.274,-3.0003\N
 ,0,1.6129,-3.7457,-5.2037\C,0,-0.3254,-3.9127,-3.6929\C,0,0.4877,-4.64
 4,-4.8085\C,0,-1.2033,-4.9513,-3.0121\C,0,1.2962,-5.8951,-4.1307\C,0,0
 .3915,-6.792,-3.286\C,0,-1.0641,-6.3871,-3.5411\N,0,-2.6307,-4.4545,-3
 .1713\C,0,-3.4874,-5.1947,-2.1967\C,0,-3.4614,-6.6918,-2.5621\C,0,-2.0
 433,-7.2802,-2.7415\C,0,-1.2947,-2.7178,-3.9367\C,0,-2.4682,-2.9914,-2
 .981\C,0,-1.2328,-6.4793,-5.0935\C,0,-0.3828,-5.3888,-5.8562\C,0,-1.25
 67,-4.5922,-6.8195\O,0,-1.1821,-3.3937,-7.0498\O,0,-2.0572,-5.4437,-7.
 5331\C,0,-2.952,-4.7859,-8.4287\C,0,1.4948,-2.8137,-6.3153\O,0,-3.1724
 ,-4.6206,-4.4222\H,0,-0.5657,-0.9248,0.036\H,0,3.1754,1.248,0.0069\H,0
 ,1.9514,3.3819,-0.0186\H,0,-2.5192,-0.0917,-1.5369\H,0,-1.8676,3.7239,
 -2.7786\H,0,-1.036,2.2055,-2.5626\H,0,-3.7274,2.6767,-3.5445\H,0,-2.79
 79,1.1875,-3.5435\H,0,-4.6152,-1.8096,-0.9825\H,0,-5.475,-1.437,0.4881
 \H,0,-6.6899,-0.7661,-1.597\H,0,-6.4306,0.5916,-0.5164\H,0,-4.8109,-0.
 1265,-3.0137\H,0,-5.9082,1.238,-2.8489\H,0,-1.9087,0.7193,1.9924\H,0,-
 2.7422,2.2412,1.9516\H,0,-4.0118,-0.1543,2.2144\H,0,-4.7953,1.1438,1.3
 181\H,0,-5.2446,2.4579,-0.196\H,0,-5.2164,3.3018,-1.7041\H,0,-3.4408,4
 .5354,-1.2249\H,0,-2.4303,6.841,2.3663\H,0,-2.8785,5.2873,3.0972\H,0,-
 4.1417,6.3706,2.4058\H,0,0.1606,4.5745,-1.7211\H,0,0.3752,5.2311,-0.08
 06\H,0,-1.137,5.4909,-0.9419\H,0,3.2118,-1.1494,0.2319\H,0,1.765,-1.98
 03,0.7364\H,0,0.1705,-2.9281,-0.9894\H,0,3.9376,-1.1383,-2.1263\H,0,3.
 7607,-2.1443,-4.3813\H,0,-1.0123,-4.9308,-1.9285\H,0,2.1393,-5.5742,-3
 .5057\H,0,1.7662,-6.4885,-4.9281\H,0,0.5665,-7.8453,-3.5371\H,0,0.6473
 ,-6.681,-2.2245\H,0,-4.4964,-4.7769,-2.2771\H,0,-3.0916,-5.0063,-1.193
 4\H,0,-4.0172,-6.8451,-3.4955\H,0,-3.9956,-7.2606,-1.7923\H,0,-2.1157,
 -8.2727,-3.2024\H,0,-1.6328,-7.4405,-1.7352\H,0,-0.8765,-1.7236,-3.739
 5\H,0,-1.6699,-2.6924,-4.9568\H,0,-3.396,-2.4867,-3.2648\H,0,-2.2234,-
 2.81,-1.9297\H,0,-2.2878,-6.4732,-5.3774\H,0,-0.8828,-7.4677,-5.4262\H
 ,0,0.303,-5.9172,-6.5366\H,0,-3.5757,-4.0631,-7.893\H,0,-2.3938,-4.297
 3,-9.2331\H,0,-3.6055,-5.5429,-8.8711\H,0,0.7046,-2.0729,-6.1555\H,0,1
 .308,-3.3599,-7.2444\H,0,2.4364,-2.2741,-6.4704\\Version=ES64L-G16RevB
 .01\State=1-A\HF=-2300.1946637\RMSD=9.766e-09\Dipole=-0.0989872,0.5371
 396,0.6854183\Quadrupole=-4.2413409,12.4472394,-8.2058986,-0.2657902,-
 0.0148868,-6.0357847\PG=C01 [X(C45H56N4O5)]\\@


 My opinions may have changed, but not the fact that I am right.
                       -- Ashleigh Brilliant
 Job cpu time:       0 days  0 hours 11 minutes 31.7 seconds.
 Elapsed time:       0 days  0 hours  1 minutes 56.1 seconds.
 File lengths (MBytes):  RWF=     67 Int=      0 D2E=      0 Chk=     10 Scr=      1
 Normal termination of Gaussian 16 at Thu May 30 09:37:34 2024.
