 Entering Gaussian System, Link 0=g16
 Input=2_pleiokomenine_2a_c_6.gjf
 Output=2_pleiokomenine_2a_c_6.log
 Initial command:
 /opt/gaussian/g16/l1.exe "/data/abenidd/Elvis/pleiokomenine_C/NMR_HF/2a/2_pleiokomenine_2a_c_6/Gau-28783.inp" -scrdir="/data/abenidd/Elvis/pleiokomenine_C/NMR_HF/2a/2_pleiokomenine_2a_c_6/"
 Entering Link 1 = /opt/gaussian/g16/l1.exe PID=     28785.
  
 Copyright (c) 1988-2017, Gaussian, Inc.  All Rights Reserved.
  
 This is part of the Gaussian(R) 16 program.  It is based on
 the Gaussian(R) 09 system (copyright 2009, Gaussian, Inc.),
 the Gaussian(R) 03 system (copyright 2003, Gaussian, Inc.),
 the Gaussian(R) 98 system (copyright 1998, Gaussian, Inc.),
 the Gaussian(R) 94 system (copyright 1995, Gaussian, Inc.),
 the Gaussian 92(TM) system (copyright 1992, Gaussian, Inc.),
 the Gaussian 90(TM) system (copyright 1990, Gaussian, Inc.),
 the Gaussian 88(TM) system (copyright 1988, Gaussian, Inc.),
 the Gaussian 86(TM) system (copyright 1986, Carnegie Mellon
 University), and the Gaussian 82(TM) system (copyright 1983,
 Carnegie Mellon University). Gaussian is a federally registered
 trademark of Gaussian, Inc.
  
 This software contains proprietary and confidential information,
 including trade secrets, belonging to Gaussian, Inc.
  
 This software is provided under written license and may be
 used, copied, transmitted, or stored only in accord with that
 written license.
  
 The following legend is applicable only to US Government
 contracts under FAR:
  
                    RESTRICTED RIGHTS LEGEND
  
 Use, reproduction and disclosure by the US Government is
 subject to restrictions as set forth in subparagraphs (a)
 and (c) of the Commercial Computer Software - Restricted
 Rights clause in FAR 52.227-19.
  
 Gaussian, Inc.
 340 Quinnipiac St., Bldg. 40, Wallingford CT 06492
  
  
 ---------------------------------------------------------------
 Warning -- This program may not be used in any manner that
 competes with the business of Gaussian, Inc. or will provide
 assistance to any competitor of Gaussian, Inc.  The licensee
 of this program is prohibited from giving any competitor of
 Gaussian, Inc. access to this program.  By using this program,
 the user acknowledges that Gaussian, Inc. is engaged in the
 business of creating and licensing software in the field of
 computational chemistry and represents and warrants to the
 licensee that it is not a competitor of Gaussian, Inc. and that
 it will not use this program in any manner prohibited above.
 ---------------------------------------------------------------
  

 Cite this work as:
 Gaussian 16, Revision B.01,
 M. J. Frisch, G. W. Trucks, H. B. Schlegel, G. E. Scuseria, 
 M. A. Robb, J. R. Cheeseman, G. Scalmani, V. Barone, 
 G. A. Petersson, H. Nakatsuji, X. Li, M. Caricato, A. V. Marenich, 
 J. Bloino, B. G. Janesko, R. Gomperts, B. Mennucci, H. P. Hratchian, 
 J. V. Ortiz, A. F. Izmaylov, J. L. Sonnenberg, D. Williams-Young, 
 F. Ding, F. Lipparini, F. Egidi, J. Goings, B. Peng, A. Petrone, 
 T. Henderson, D. Ranasinghe, V. G. Zakrzewski, J. Gao, N. Rega, 
 G. Zheng, W. Liang, M. Hada, M. Ehara, K. Toyota, R. Fukuda, 
 J. Hasegawa, M. Ishida, T. Nakajima, Y. Honda, O. Kitao, H. Nakai, 
 T. Vreven, K. Throssell, J. A. Montgomery, Jr., J. E. Peralta, 
 F. Ogliaro, M. J. Bearpark, J. J. Heyd, E. N. Brothers, K. N. Kudin, 
 V. N. Staroverov, T. A. Keith, R. Kobayashi, J. Normand, 
 K. Raghavachari, A. P. Rendell, J. C. Burant, S. S. Iyengar, 
 J. Tomasi, M. Cossi, J. M. Millam, M. Klene, C. Adamo, R. Cammi, 
 J. W. Ochterski, R. L. Martin, K. Morokuma, O. Farkas, 
 J. B. Foresman, and D. J. Fox, Gaussian, Inc., Wallingford CT, 2016.
 
 ******************************************
 Gaussian 16:  ES64L-G16RevB.01 20-Dec-2017
                30-May-2024 
 ******************************************
 %nprocshared=8
 Will use up to    8 processors via shared memory.
 ----------------------------------------------
 # nmr=giao hf/sto-3g pop=nbo geom=connectivity
 ----------------------------------------------
 1/38=1,57=2,172=1/1;
 2/12=2,17=6,18=5,40=1/2;
 3/6=3,11=9,25=1,30=1/1,2,3,8;
 4//1;
 5/5=2,38=5/2;
 8/6=1,10=90,11=11/1;
 10/13=100,45=16/2;
 6/7=2,8=2,9=2,10=2,28=1,40=1,64=1/1,7;
 99/9=1/99;
 -----------------
 Pleiokomenine_C_2
 -----------------
 Symbolic Z-matrix:
 Charge =  0 Multiplicity = 1
 C                     0.        0.        0. 
 C                     1.4024    0.        0. 
 C                     2.0896    1.232     0. 
 C                     1.4003    2.452    -0.0471 
 C                     0.0178    2.4401   -0.1073 
 C                    -0.6666    1.2138   -0.0671 
 N                    -0.8665    3.5447   -0.2249 
 C                    -2.1504    1.4835   -0.0546 
 C                    -2.1061    2.9067   -0.7377 
 C                    -3.1087    0.5779   -0.8423 
 C                    -1.9742    2.7185   -2.3134 
 C                    -3.1841    1.9742   -2.8893 
 C                    -4.0548    1.4589   -1.7278 
 N                    -3.7664   -0.2425    0.1754 
 C                    -4.9608   -0.9443   -0.2703 
 C                    -5.9356   -0.1041   -1.0945 
 C                    -5.2235    0.6076   -2.2447 
 C                    -2.6069    1.3478    1.4177 
 C                    -3.907     0.5543    1.3844 
 C                    -4.5819    2.7439   -1.0023 
 C                    -3.4238    3.6807   -0.5582 
 C                    -3.6776    4.3026    0.8039 
 O                    -4.5116    3.9115    1.611 
 O                    -2.9034    5.4097    0.98 
 C                    -3.0581    6.0354    2.2536 
 C                    -0.333     4.7571   -0.8255 
 C                     2.1777   -1.3038    0.0403 
 C                     1.6767   -2.3633   -0.9234 
 C                     1.4566   -2.0503   -2.2734 
 C                     1.4374   -3.678    -0.4662 
 C                     0.9294   -4.6675   -1.3184 
 C                     0.6472   -4.3329   -2.6287 
 C                     0.9354   -3.0314   -3.0994 
 N                     0.0245   -5.1271   -3.6308 
 C                     0.6209   -2.9999   -4.5781 
 C                    -0.5123   -4.0854   -4.537 
 C                     0.048    -1.7753   -5.2693 
 C                    -1.8262   -3.4632   -3.8286 
 C                    -2.2412   -2.1322   -4.4616 
 C                    -1.4096   -1.9069   -5.7343 
 N                     0.9663   -1.4968   -6.4486 
 C                     0.7067   -0.1009   -6.9093 
 C                    -0.7484   -0.0197   -7.4142 
 C                    -1.8013   -0.5804   -6.4301 
 C                     2.0097   -3.1897   -5.253 
 C                     2.2996   -1.814    -5.879 
 C                    -1.6455   -3.189    -6.6045 
 C                    -1.0414   -4.4797   -5.9348 
 C                    -0.1      -5.2724   -6.8296 
 O                     0.8338   -5.9644   -6.4457 
 O                    -0.5381   -5.2487   -8.1234 
 C                     0.3234   -5.922    -9.0393 
 C                    -0.7723   -6.2654   -3.2176 
 O                     0.8095   -2.3273   -7.5303 
 H                    -0.5632   -0.9288    0.0503 
 H                     3.1772    1.2483    0.0352 
 H                     1.9568    3.3822   -0.045 
 H                    -2.5503   -0.1057   -1.4961 
 H                    -1.0612    2.1729   -2.5834 
 H                    -1.8872    3.6926   -2.8118 
 H                    -3.7609    2.6429   -3.5406 
 H                    -2.8401    1.1495   -3.5245 
 H                    -4.635    -1.7911   -0.8885 
 H                    -5.4842   -1.3918    0.5834 
 H                    -6.7171   -0.7555   -1.5034 
 H                    -6.4442    0.6215   -0.4506 
 H                    -4.8515   -0.1469   -2.9503 
 H                    -5.9406    1.2258   -2.7976 
 H                    -1.8853    0.7601    2.0038 
 H                    -2.6989    2.2931    1.9511 
 H                    -3.9961   -0.0815    2.2718 
 H                    -4.7772    1.2125    1.3673 
 H                    -5.2435    2.4878   -0.1745 
 H                    -5.2226    3.3077   -1.6957 
 H                    -3.4364    4.5374   -1.2495 
 H                    -2.8207    5.3335    3.0593 
 H                    -2.3564    6.8723    2.307 
 H                    -4.074     6.4268    2.3653 
 H                     0.162     4.5583   -1.7828 
 H                     0.3869    5.2328   -0.151 
 H                    -1.13      5.4846   -1.0067 
 H                     3.2351   -1.1239   -0.1921 
 H                     2.1402   -1.6773    1.0715 
 H                     1.6735   -1.0566   -2.6509 
 H                     1.6302   -3.9362    0.5734 
 H                     0.7389   -5.6634   -0.936 
 H                     0.1553   -0.9022   -4.6083 
 H                    -1.7071   -3.3112   -2.7489 
 H                    -2.6563   -4.1784   -3.913 
 H                    -3.3158   -2.1397   -4.6816 
 H                    -2.0792   -1.3189   -3.7431 
 H                     0.8907    0.5708   -6.0645 
 H                     1.4237    0.1109   -7.7095 
 H                    -0.9909    1.0231   -7.6496 
 H                    -0.8339   -0.5727   -8.3579 
 H                    -1.9572    0.1875   -5.6607 
 H                    -2.762    -0.6917   -6.9472 
 H                     1.9861   -3.9415   -6.0409 
 H                     2.825    -3.4735   -4.5773 
 H                     3.038    -1.8413   -6.6854 
 H                     2.5457   -1.0439   -5.141 
 H                    -1.3145   -3.0451   -7.6347 
 H                    -2.7304   -3.3422   -6.704 
 H                    -1.8781   -5.1817   -5.7968 
 H                     1.3401   -5.5198   -8.9842 
 H                    -0.0586   -5.7534   -10.05 
 H                     0.32     -6.9986   -8.8429 
 H                    -1.2293   -6.7473   -4.0875 
 H                    -0.1446   -7.0199   -2.7316 
 H                    -1.5725   -5.978    -2.527 
 
 Stoichiometry    C45H56N4O5
 Framework group  C1[X(C45H56N4O5)]
 Deg. of freedom   324
 Full point group                 C1      NOp   1
 Largest Abelian subgroup         C1      NOp   1
 Largest concise Abelian subgroup C1      NOp   1
                         Standard orientation:                         
 ---------------------------------------------------------------------
 Center     Atomic      Atomic             Coordinates (Angstroms)
 Number     Number       Type             X           Y           Z
 ---------------------------------------------------------------------
      1          6           0       -1.807694    2.319425    0.331854
      2          6           0       -1.388273    3.425083   -0.422024
      3          6           0       -2.060493    3.732460   -1.623568
      4          6           0       -3.105938    2.929329   -2.100828
      5          6           0       -3.472714    1.806408   -1.379998
      6          6           0       -2.829237    1.523671   -0.163516
      7          7           0       -4.449509    0.830253   -1.710076
      8          6           0       -3.473086    0.309833    0.458266
      9          6           0       -4.040172   -0.325643   -0.871647
     10          6           0       -2.614462   -0.734183    1.187455
     11          6           0       -2.866394   -1.107616   -1.610843
     12          6           0       -2.332385   -2.256784   -0.748434
     13          6           0       -2.962976   -2.165732    0.653992
     14          7           0       -2.872698   -0.501272    2.608865
     15          6           0       -2.446983   -1.570140    3.499960
     16          6           0       -2.813925   -2.980693    3.040426
     17          6           0       -2.377866   -3.227544    1.596307
     18          6           0       -4.447543    0.837030    1.538531
     19          6           0       -4.249898   -0.056474    2.756561
     20          6           0       -4.496664   -2.401387    0.435642
     21          6           0       -5.099646   -1.406787   -0.595473
     22          6           0       -6.483281   -0.928396   -0.191508
     23          8           0       -6.966411   -1.039363    0.928402
     24          8           0       -7.152283   -0.425646   -1.266564
     25          6           0       -8.452807    0.078381   -0.963112
     26          6           0       -4.772474    0.668836   -3.118939
     27          6           0       -0.253087    4.307984    0.062174
     28          6           0        0.963674    3.550829    0.560640
     29          6           0        1.531824    2.528007   -0.213927
     30          6           0        1.538540    3.879772    1.808060
     31          6           0        2.632555    3.169006    2.319294
     32          6           0        3.141542    2.116339    1.583561
     33          6           0        2.599276    1.820563    0.311954
     34          7           0        4.157268    1.190292    1.948872
     35          6           0        3.421447    0.701588   -0.286700
     36          6           0        3.829815    0.038751    1.076394
     37          6           0        2.816408   -0.387441   -1.154778
     38          6           0        2.543884   -0.701111    1.720042
     39          6           0        1.873319   -1.651850    0.724596
     40          6           0        2.769417   -1.783601   -0.517070
     41          7           0        3.641243   -0.406321   -2.431836
     42          6           0        2.861540   -1.146097   -3.467678
     43          6           0        2.689015   -2.604116   -2.995187
     44          6           0        2.148891   -2.751851   -1.553703
     45          6           0        4.400447    1.437826   -1.245758
     46          6           0        3.904408    1.038423   -2.646790
     47          6           0        4.164701   -2.234698    0.036438
     48          6           0        4.839812   -1.121071    0.921537
     49          6           0        6.254137   -0.751490    0.499197
     50          8           0        6.782731    0.340968    0.658411
     51          8           0        6.927526   -1.858262    0.065591
     52          6           0        8.246282   -1.586737   -0.405095
     53          6           0        4.467655    1.020397    3.354627
     54          8           0        4.872699   -1.004709   -2.332638
     55          1           0       -1.346336    2.081545    1.287341
     56          1           0       -1.769178    4.607419   -2.201462
     57          1           0       -3.603561    3.192314   -3.027207
     58          1           0       -1.545397   -0.546337    1.018969
     59          1           0       -2.033230   -0.441938   -1.869418
     60          1           0       -3.217993   -1.515928   -2.567139
     61          1           0       -2.567866   -3.219775   -1.218803
     62          1           0       -1.238721   -2.200243   -0.696975
     63          1           0       -1.353809   -1.513798    3.584712
     64          1           0       -2.826620   -1.398237    4.514520
     65          1           0       -2.323991   -3.712091    3.694096
     66          1           0       -3.891734   -3.143060    3.148776
     67          1           0       -1.281153   -3.203469    1.549762
     68          1           0       -2.681792   -4.233977    1.285140
     69          1           0       -4.185076    1.860629    1.843437
     70          1           0       -5.487140    0.896668    1.218760
     71          1           0       -4.386885    0.513376    3.681853
     72          1           0       -4.968233   -0.877783    2.771148
     73          1           0       -5.037556   -2.390010    1.382142
     74          1           0       -4.649795   -3.419426    0.049225
     75          1           0       -5.274939   -1.984132   -1.516307
     76          1           0       -8.393190    0.870428   -0.209930
     77          1           0       -8.873097    0.503605   -1.878632
     78          1           0       -9.106396   -0.731687   -0.624980
     79          1           0       -3.875107    0.536909   -3.733998
     80          1           0       -5.324254    1.540473   -3.486748
     81          1           0       -5.414120   -0.203945   -3.273346
     82          1           0        0.082509    4.971461   -0.745070
     83          1           0       -0.652802    4.952729    0.855151
     84          1           0        1.128363    2.289105   -1.192261
     85          1           0        1.120223    4.689062    2.403601
     86          1           0        3.042369    3.432007    3.287396
     87          1           0        1.806855   -0.082292   -1.468507
     88          1           0        1.785822   -0.004518    2.098381
     89          1           0        2.858747   -1.268857    2.606736
     90          1           0        1.696933   -2.626340    1.196272
     91          1           0        0.886230   -1.258560    0.450879
     92          1           0        1.901739   -0.634634   -3.593825
     93          1           0        3.433041   -1.089221   -4.400105
     94          1           0        2.022974   -3.131426   -3.687996
     95          1           0        3.656487   -3.118362   -3.052088
     96          1           0        1.066761   -2.570780   -1.600170
     97          1           0        2.269120   -3.790593   -1.223120
     98          1           0        5.429167    1.101351   -1.123011
     99          1           0        4.417545    2.529890   -1.151255
    100          1           0        4.656593    1.154038   -3.432355
    101          1           0        2.960871    1.517646   -2.926694
    102          1           0        4.815138   -2.603776   -0.758731
    103          1           0        4.012546   -3.119095    0.672889
    104          1           0        5.002118   -1.566429    1.915130
    105          1           0        8.228824   -0.829460   -1.195479
    106          1           0        8.653504   -2.511238   -0.823821
    107          1           0        8.887618   -1.269679    0.423044
    108          1           0        5.226518    0.242903    3.486662
    109          1           0        4.884419    1.943144    3.772143
    110          1           0        3.585187    0.738827    3.939279
 ---------------------------------------------------------------------
 Rotational constants (GHZ):           0.1009479           0.0331341           0.0319037
 Standard basis: STO-3G (5D, 7F)
 There are   326 symmetry adapted cartesian basis functions of A   symmetry.
 There are   326 symmetry adapted basis functions of A   symmetry.
   326 basis functions,   978 primitive gaussians,   326 cartesian basis functions
   197 alpha electrons      197 beta electrons
       nuclear repulsion energy      8228.0998943166 Hartrees.
 NAtoms=  110 NActive=  110 NUniq=  110 SFac= 1.00D+00 NAtFMM=   60 NAOKFM=T Big=T
 Integral buffers will be    131072 words long.
 Raffenetti 1 integral format.
 Two-electron integral symmetry is turned on.
 One-electron integrals computed using PRISM.
 NBasis=   326 RedAO= T EigKep=  1.73D-01  NBF=   326
 NBsUse=   326 1.00D-06 EigRej= -1.00D+00 NBFU=   326
 ExpMin= 1.69D-01 ExpMax= 1.31D+02 ExpMxC= 1.31D+02 IAcc=3 IRadAn=         5 AccDes= 0.00D+00
 Harris functional with IExCor=  205 and IRadAn=       5 diagonalized for initial guess.
 HarFok:  IExCor=  205 AccDes= 0.00D+00 IRadAn=         5 IDoV= 1 UseB2=F ITyADJ=14
 ICtDFT=  3500011 ScaDFX=  1.000000  1.000000  1.000000  1.000000
 FoFCou: FMM=F IPFlag=           0 FMFlag=      100000 FMFlg1=        2001
         NFxFlg=           0 DoJE=T BraDBF=F KetDBF=T FulRan=T
         wScrn=  0.000000 ICntrl=       500 IOpCl=  0 I1Cent=   200000004 NGrid=           0
         NMat0=    1 NMatS0=      1 NMatT0=    0 NMatD0=    1 NMtDS0=    0 NMtDT0=    0
 Petite list used in FoFCou.
 Requested convergence on RMS density matrix=1.00D-08 within 128 cycles.
 Requested convergence on MAX density matrix=1.00D-06.
 Requested convergence on             energy=1.00D-06.
 No special actions if energy rises.
 Integral accuracy reduced to 1.0D-05 until final iterations.
 Initial convergence to 1.0D-05 achieved.  Increase integral accuracy.
 SCF Done:  E(RHF) =  -2300.20092710     A.U. after   16 cycles
            NFock= 16  Conv=0.39D-08     -V/T= 2.0093
 Range of M.O.s used for correlation:     1   326
 NBasis=   326 NAE=   197 NBE=   197 NFC=     0 NFV=     0
 NROrb=    326 NOA=   197 NOB=   197 NVA=   129 NVB=   129
          Differentiating once with respect to magnetic field using GIAOs.
          Electric field/nuclear overlap derivatives assumed to be zero.
 FoFCou: FMM=F IPFlag=           0 FMFlag=      100000 FMFlg1=        2001
         NFxFlg=           0 DoJE=F BraDBF=F KetDBF=T FulRan=T
         wScrn=  0.000000 ICntrl=      6100 IOpCl=  0 I1Cent=           7 NGrid=         110
         NMat0=    1 NMatS0=      1 NMatT0=    0 NMatD0=    1 NMtDS0=    0 NMtDT0=    0
 Symmetry not used in FoFCou.
 FoFJK:  IHMeth= 1 ICntrl=    6127 DoSepK=F KAlg= 0 I1Cent=           0 FoldK=F
 IRaf=         1 NMat=       1 IRICut=       1 DoRegI=T DoRafI=F ISym2E= 0 IDoP0=0 IntGTp=1.
          There are     3 degrees of freedom in the 1st order CPHF.  IDoFFX=0 NUNeed=     3.
      3 vectors produced by pass  0 Test12= 8.47D-13 3.33D-08 XBig12= 1.58D+02 2.68D+00.
 AX will form     3 AO Fock derivatives at one time.
      3 vectors produced by pass  1 Test12= 8.47D-13 3.33D-08 XBig12= 7.57D-01 3.11D-01.
      3 vectors produced by pass  2 Test12= 8.47D-13 3.33D-08 XBig12= 1.72D-02 4.09D-02.
      3 vectors produced by pass  3 Test12= 8.47D-13 3.33D-08 XBig12= 4.61D-04 8.88D-03.
      3 vectors produced by pass  4 Test12= 8.47D-13 3.33D-08 XBig12= 1.81D-05 8.15D-04.
      3 vectors produced by pass  5 Test12= 8.47D-13 3.33D-08 XBig12= 2.80D-07 8.82D-05.
      3 vectors produced by pass  6 Test12= 8.47D-13 3.33D-08 XBig12= 6.44D-09 2.56D-05.
      3 vectors produced by pass  7 Test12= 8.47D-13 3.33D-08 XBig12= 2.86D-10 4.64D-06.
      3 vectors produced by pass  8 Test12= 8.47D-13 3.33D-08 XBig12= 6.51D-12 4.32D-07.
      2 vectors produced by pass  9 Test12= 8.47D-13 3.33D-08 XBig12= 1.36D-13 1.09D-07.
 InvSVY:  IOpt=1 It=  1 EMax= 5.33D-15
 Solved reduced A of dimension    29 with     3 vectors.
 Calculating GIAO nuclear magnetic shielding tensors.
 SCF GIAO Magnetic shielding tensor (ppm):
      1  C    Isotropic =   124.0328   Anisotropy =   155.4557
   XX=   154.0188   YX=   -36.7427   ZX=   -60.7383
   XY=   -35.6585   YY=   145.0919   ZY=    47.9850
   XZ=   -69.4702   YZ=    46.6694   ZZ=    72.9876
   Eigenvalues:    30.8917   113.5367   227.6699
      2  C    Isotropic =   118.1499   Anisotropy =   162.3925
   XX=   124.3437   YX=   -74.3620   ZX=   -46.5474
   XY=   -77.6263   YY=   116.9099   ZY=    28.4212
   XZ=   -59.4221   YZ=    27.3770   ZZ=   113.1960
   Eigenvalues:    39.4704    88.5676   226.4115
      3  C    Isotropic =   118.9355   Anisotropy =   151.7033
   XX=   153.4225   YX=   -57.9798   ZX=   -22.8644
   XY=   -63.2864   YY=    88.8986   ZY=    62.9788
   XZ=   -25.2337   YZ=    64.9169   ZZ=   114.4854
   Eigenvalues:    26.7932   109.9423   220.0710
      4  C    Isotropic =   133.9573   Anisotropy =   143.1061
   XX=   155.1461   YX=   -32.7611   ZX=   -62.0152
   XY=   -34.5474   YY=   151.1701   ZY=    40.2862
   XZ=   -59.6430   YZ=    49.9125   ZZ=    95.5556
   Eigenvalues:    52.3399   120.1706   229.3613
      5  C    Isotropic =   109.1899   Anisotropy =   128.0555
   XX=   112.8309   YX=   -66.9111   ZX=   -42.6770
   XY=   -53.6210   YY=   110.7823   ZY=    16.3870
   XZ=   -50.6377   YZ=    15.1318   ZZ=   103.9565
   Eigenvalues:    41.7502    91.2593   194.5602
      6  C    Isotropic =   117.6605   Anisotropy =   141.2521
   XX=   139.1036   YX=   -49.3399   ZX=   -40.8545
   XY=   -49.4116   YY=   104.0929   ZY=    54.8785
   XZ=   -30.2879   YZ=    55.3350   ZZ=   109.7849
   Eigenvalues:    49.5464    91.6064   211.8285
      7  N    Isotropic =   274.1972   Anisotropy =    81.9482
   XX=   266.4177   YX=    28.0595   ZX=    16.1096
   XY=    28.5608   YY=   313.7256   ZY=    17.4216
   XZ=     1.1068   YZ=     2.5337   ZZ=   242.4482
   Eigenvalues:   239.6616   254.1006   328.8293
      8  C    Isotropic =   196.0423   Anisotropy =    13.0193
   XX=   199.6391   YX=    -1.6931   ZX=    -0.3774
   XY=    -4.2800   YY=   187.2695   ZY=    -1.9138
   XZ=     6.2745   YZ=    -5.2317   ZZ=   201.2184
   Eigenvalues:   186.0261   197.3790   204.7218
      9  C    Isotropic =   181.1430   Anisotropy =    44.1062
   XX=   169.4542   YX=    -9.0495   ZX=    18.4432
   XY=     7.9346   YY=   189.5101   ZY=   -21.3531
   XZ=    19.7481   YZ=   -16.1758   ZZ=   184.4647
   Eigenvalues:   153.1203   179.7616   210.5471
     10  C    Isotropic =   190.4164   Anisotropy =    28.1201
   XX=   178.9637   YX=    -4.3575   ZX=    -3.0693
   XY=    -5.0437   YY=   184.3023   ZY=    -1.2097
   XZ=    -8.2982   YZ=    -3.8197   ZZ=   207.9833
   Eigenvalues:   175.0667   187.0194   209.1631
     11  C    Isotropic =   213.8411   Anisotropy =    19.9682
   XX=   218.0012   YX=    -7.7005   ZX=    -9.1947
   XY=   -10.6372   YY=   212.1963   ZY=     2.0973
   XZ=    -3.0474   YZ=     2.0962   ZZ=   211.3258
   Eigenvalues:   204.6968   209.6732   227.1533
     12  C    Isotropic =   213.0874   Anisotropy =    19.5340
   XX=   211.4051   YX=    -1.6594   ZX=    -5.4498
   XY=    -0.5606   YY=   204.5791   ZY=    -2.9360
   XZ=    -7.0948   YZ=    -1.6771   ZZ=   223.2780
   Eigenvalues:   203.7062   209.4459   226.1101
     13  C    Isotropic =   213.8556   Anisotropy =     9.3886
   XX=   219.2064   YX=    -3.4481   ZX=    -1.9277
   XY=    -1.1040   YY=   214.2744   ZY=    -2.6125
   XZ=     1.2418   YZ=    -1.6541   ZZ=   208.0860
   Eigenvalues:   207.3327   214.1194   220.1146
     14  N    Isotropic =   303.4160   Anisotropy =    55.1509
   XX=   309.2390   YX=   -45.6424   ZX=    -9.4619
   XY=   -29.8141   YY=   265.1162   ZY=    -6.5542
   XZ=   -13.3689   YZ=   -18.2447   ZZ=   335.8927
   Eigenvalues:   240.6323   329.4324   340.1832
     15  C    Isotropic =   205.5002   Anisotropy =    33.2248
   XX=   195.5057   YX=    -4.6980   ZX=     9.3330
   XY=    -7.2425   YY=   212.0172   ZY=   -12.1107
   XZ=    12.8691   YZ=   -13.1266   ZZ=   208.9777
   Eigenvalues:   189.1935   199.6571   227.6501
     16  C    Isotropic =   224.3508   Anisotropy =     7.8580
   XX=   219.9587   YX=    -1.4370   ZX=     2.5493
   XY=     2.2451   YY=   223.7449   ZY=     1.3631
   XZ=    -1.2473   YZ=     0.7232   ZZ=   229.3489
   Eigenvalues:   219.8845   223.5786   229.5895
     17  C    Isotropic =   215.4372   Anisotropy =    18.5399
   XX=   212.6868   YX=    -1.5778   ZX=     3.6021
   XY=    -5.6329   YY=   213.5258   ZY=   -10.2805
   XZ=     3.9279   YZ=    -6.9656   ZZ=   220.0992
   Eigenvalues:   207.4047   211.1098   227.7971
     18  C    Isotropic =   210.8086   Anisotropy =    37.3482
   XX=   202.4028   YX=    -4.6285   ZX=   -22.3464
   XY=    -8.6105   YY=   205.3142   ZY=    -2.5072
   XZ=   -15.8719   YZ=    -3.0941   ZZ=   224.7090
   Eigenvalues:   188.4148   208.3037   235.7074
     19  C    Isotropic =   199.8333   Anisotropy =    43.3464
   XX=   216.1178   YX=   -24.4528   ZX=    -6.9047
   XY=   -21.1373   YY=   187.5243   ZY=    -7.4360
   XZ=    -1.1797   YZ=    -6.0269   ZZ=   195.8579
   Eigenvalues:   172.2997   198.4693   228.7310
     20  C    Isotropic =   212.2807   Anisotropy =    22.3571
   XX=   224.7094   YX=    -1.2997   ZX=     6.9481
   XY=    -2.0611   YY=   210.8345   ZY=    -5.9980
   XZ=     6.9697   YZ=    -4.1797   ZZ=   201.2982
   Eigenvalues:   197.8195   211.8371   227.1854
     21  C    Isotropic =   209.1672   Anisotropy =    11.5372
   XX=   216.4103   YX=    -2.1163   ZX=     0.8330
   XY=     2.8350   YY=   211.7642   ZY=    -1.6517
   XZ=    -6.1765   YZ=     0.3670   ZZ=   199.3272
   Eigenvalues:   198.8928   211.7501   216.8587
     22  C    Isotropic =    96.6818   Anisotropy =    98.9535
   XX=    28.3704   YX=    63.7980   ZX=   -45.8232
   XY=    68.2590   YY=   126.0596   ZY=    18.9476
   XZ=   -66.3396   YZ=    28.4851   ZZ=   135.6156
   Eigenvalues:   -27.5501   154.9447   162.6509
     23  O    Isotropic =  -135.0652   Anisotropy =   887.8851
   XX=  -229.0623   YX=   223.9170   ZX=   153.4422
   XY=   219.7803   YY=   322.3038   ZY=   197.7350
   XZ=   132.1122   YZ=   192.1004   ZZ=  -498.4371
   Eigenvalues:  -571.9012  -290.1525   456.8582
     24  O    Isotropic =   283.9642   Anisotropy =   139.5297
   XX=   191.7575   YX=    64.4392   ZX=    43.7301
   XY=    13.6876   YY=   349.2651   ZY=    -1.3236
   XZ=   171.7819   YZ=   -60.4674   ZZ=   310.8701
   Eigenvalues:   117.6736   357.2351   376.9840
     25  C    Isotropic =   197.3246   Anisotropy =    58.1087
   XX=   228.3037   YX=   -18.2968   ZX=    -6.7848
   XY=   -18.5438   YY=   185.0976   ZY=     3.4954
   XZ=    -6.8587   YZ=     2.7378   ZZ=   178.5725
   Eigenvalues:   177.2908   178.6193   236.0637
     26  C    Isotropic =   209.9343   Anisotropy =    41.0968
   XX=   203.2883   YX=     2.0199   ZX=    10.3115
   XY=    -0.2830   YY=   192.7729   ZY=     2.6359
   XZ=    11.1906   YZ=     2.7150   ZZ=   233.7416
   Eigenvalues:   192.5953   199.8754   237.3321
     27  C    Isotropic =   206.1606   Anisotropy =    20.3563
   XX=   213.0051   YX=    -0.3238   ZX=     9.7876
   XY=     0.2732   YY=   207.4588   ZY=     0.6218
   XZ=    14.3721   YZ=     0.4439   ZZ=   198.0178
   Eigenvalues:   191.2820   207.4683   219.7314
     28  C    Isotropic =   118.4723   Anisotropy =   162.4883
   XX=   110.1975   YX=    77.5983   ZX=   -38.9793
   XY=    79.8041   YY=   136.9604   ZY=   -30.6009
   XZ=   -50.2643   YZ=   -31.2346   ZZ=   108.2591
   Eigenvalues:    39.8684    88.7508   226.7978
     29  C    Isotropic =   127.7160   Anisotropy =   151.8090
   XX=   152.4562   YX=    40.7992   ZX=   -50.8114
   XY=    35.3659   YY=   161.5066   ZY=   -50.2385
   XZ=   -58.7574   YZ=   -47.9988   ZZ=    69.1853
   Eigenvalues:    35.0164   119.2097   228.9220
     30  C    Isotropic =   118.5477   Anisotropy =   152.1988
   XX=   138.9001   YX=    69.9340   ZX=   -10.6057
   XY=    72.9835   YY=   109.9321   ZY=   -59.8185
   XZ=   -12.0517   YZ=   -65.2794   ZZ=   106.8111
   Eigenvalues:    26.1174   109.5122   220.0136
     31  C    Isotropic =   133.6489   Anisotropy =   144.8782
   XX=   156.2186   YX=    39.5109   ZX=   -50.3802
   XY=    41.6783   YY=   162.7808   ZY=   -37.0175
   XZ=   -51.9562   YZ=   -49.7183   ZZ=    81.9473
   Eigenvalues:    51.2112   119.5011   230.2343
     32  C    Isotropic =   107.9517   Anisotropy =   131.5808
   XX=   110.2059   YX=    69.1443   ZX=   -38.3159
   XY=    57.8961   YY=   121.8277   ZY=   -14.4750
   XZ=   -48.4006   YZ=   -14.4609   ZZ=    91.8215
   Eigenvalues:    39.9707    88.2122   195.6722
     33  C    Isotropic =   117.7671   Anisotropy =   143.3902
   XX=   135.5197   YX=    54.1574   ZX=   -32.7118
   XY=    61.3669   YY=   115.2169   ZY=   -53.6255
   XZ=   -22.5729   YZ=   -54.7794   ZZ=   102.5647
   Eigenvalues:    48.4932    91.4475   213.3606
     34  N    Isotropic =   272.6382   Anisotropy =    84.0398
   XX=   267.8714   YX=   -28.9888   ZX=    13.9396
   XY=   -30.0270   YY=   312.4233   ZY=   -16.7390
   XZ=    -1.6494   YZ=    -3.6403   ZZ=   237.6199
   Eigenvalues:   236.0221   253.2277   328.6647
     35  C    Isotropic =   200.9528   Anisotropy =    15.5925
   XX=   207.1644   YX=     2.5382   ZX=    -0.0425
   XY=     3.7374   YY=   190.5834   ZY=     0.4751
   XZ=     8.8277   YZ=     3.8749   ZZ=   205.1107
   Eigenvalues:   189.8794   201.6313   211.3478
     36  C    Isotropic =   179.1655   Anisotropy =    39.3891
   XX=   169.1141   YX=     7.3045   ZX=    16.6276
   XY=   -11.4486   YY=   182.9273   ZY=    19.4318
   XZ=    18.0412   YZ=    14.9020   ZZ=   185.4550
   Eigenvalues:   153.3994   178.6722   205.4249
     37  C    Isotropic =   183.6734   Anisotropy =    43.4454
   XX=   178.0235   YX=    14.6999   ZX=   -21.3303
   XY=     7.0884   YY=   172.8092   ZY=     3.2352
   XZ=   -19.5977   YZ=     2.4987   ZZ=   200.1875
   Eigenvalues:   157.8848   180.4984   212.6370
     38  C    Isotropic =   210.9505   Anisotropy =    25.2897
   XX=   218.0498   YX=     9.5951   ZX=   -12.1408
   XY=    10.5446   YY=   211.1238   ZY=    -1.2267
   XZ=    -4.0005   YZ=    -3.0917   ZZ=   203.6778
   Eigenvalues:   199.4109   205.6303   227.8103
     39  C    Isotropic =   212.7988   Anisotropy =    19.5529
   XX=   216.0271   YX=     0.9090   ZX=    -5.6606
   XY=    -2.4450   YY=   203.7570   ZY=     4.3543
   XZ=    -8.9790   YZ=     6.9432   ZZ=   218.6124
   Eigenvalues:   201.6308   210.9315   225.8341
     40  C    Isotropic =   211.6036   Anisotropy =     9.9121
   XX=   212.4641   YX=     2.2028   ZX=     0.5700
   XY=     2.3121   YY=   214.9797   ZY=     4.9454
   XZ=     1.0798   YZ=     4.4380   ZZ=   207.3670
   Eigenvalues:   205.1244   211.4748   218.2116
     41  N    Isotropic =   235.3223   Anisotropy =    24.1723
   XX=   237.6274   YX=   -24.4316   ZX=   -14.2601
   XY=   -11.3156   YY=   228.2266   ZY=    -1.8181
   XZ=     4.0203   YZ=   -13.1437   ZZ=   240.1130
   Eigenvalues:   211.5747   242.9551   251.4372
     42  C    Isotropic =   193.9038   Anisotropy =    49.2780
   XX=   188.6542   YX=    11.1051   ZX=    17.2108
   XY=    16.1826   YY=   190.1477   ZY=    16.5853
   XZ=    19.1374   YZ=    14.2834   ZZ=   202.9094
   Eigenvalues:   174.9060   180.0495   226.7558
     43  C    Isotropic =   219.3535   Anisotropy =     9.2230
   XX=   209.9607   YX=     5.6852   ZX=    -3.8470
   XY=     2.3809   YY=   224.0385   ZY=     0.7042
   XZ=    -4.8695   YZ=     0.9540   ZZ=   224.0614
   Eigenvalues:   207.6907   224.8678   225.5022
     44  C    Isotropic =   214.9248   Anisotropy =    20.8400
   XX=   212.0056   YX=     4.6503   ZX=     1.2517
   XY=     7.2332   YY=   213.0229   ZY=    11.9997
   XZ=     0.9578   YZ=     9.4233   ZZ=   219.7459
   Eigenvalues:   203.0604   212.8959   228.8181
     45  C    Isotropic =   207.4556   Anisotropy =    35.0403
   XX=   195.5141   YX=    18.5175   ZX=   -13.9949
   XY=    13.3361   YY=   203.8213   ZY=    -2.8361
   XZ=   -14.1122   YZ=     2.3452   ZZ=   223.0315
   Eigenvalues:   180.2462   211.3049   230.8158
     46  C    Isotropic =   190.9016   Anisotropy =    51.9906
   XX=   164.8528   YX=    14.0944   ZX=    -1.2059
   XY=    12.8965   YY=   221.9565   ZY=    -8.2516
   XZ=    -9.7165   YZ=     0.9394   ZZ=   185.8953
   Eigenvalues:   160.9889   186.1538   225.5620
     47  C    Isotropic =   211.7747   Anisotropy =    26.6631
   XX=   224.2082   YX=     1.6604   ZX=    11.0984
   XY=     0.5539   YY=   209.3181   ZY=     4.6195
   XZ=    12.1582   YZ=     4.5322   ZZ=   201.7978
   Eigenvalues:   195.7814   209.9926   229.5501
     48  C    Isotropic =   207.2157   Anisotropy =    18.4057
   XX=   217.2739   YX=    -4.1676   ZX=    -1.6159
   XY=    -4.3498   YY=   201.5198   ZY=     2.6641
   XZ=    -6.2128   YZ=     1.7402   ZZ=   202.8534
   Eigenvalues:   199.7747   202.3863   219.4862
     49  C    Isotropic =    98.3545   Anisotropy =    96.9286
   XX=    26.1059   YX=    48.3927   ZX=    54.6805
   XY=    73.1178   YY=   132.9066   ZY=   -26.0691
   XZ=    59.5429   YZ=   -18.4454   ZZ=   136.0510
   Eigenvalues:   -24.6963   156.7862   162.9736
     50  O    Isotropic =  -132.4571   Anisotropy =   877.9754
   XX=  -264.1851   YX=  -148.5962   ZX=   169.2946
   XY=  -138.1032   YY=  -486.3385   ZY=  -201.6483
   XZ=   176.1907   YZ=  -189.2635   ZZ=   353.1521
   Eigenvalues:  -569.4954  -280.7358   452.8598
     51  O    Isotropic =   285.8597   Anisotropy =   142.4295
   XX=   183.5777   YX=   -44.1468   ZX=    57.4083
   XY=  -168.5519   YY=   322.7254   ZY=    48.0582
   XZ=     5.1816   YZ=    -5.7604   ZZ=   351.2760
   Eigenvalues:   119.9570   356.8094   380.8127
     52  C    Isotropic =   197.4675   Anisotropy =    57.4889
   XX=   229.4593   YX=     4.8318   ZX=   -17.1382
   XY=     4.8268   YY=   178.4793   ZY=    -2.4868
   XZ=   -17.1838   YZ=    -3.5525   ZZ=   184.4638
   Eigenvalues:   176.9468   179.6623   235.7935
     53  C    Isotropic =   210.9190   Anisotropy =    41.4309
   XX=   202.9847   YX=    -0.0762   ZX=    10.7328
   XY=     1.0659   YY=   194.8035   ZY=    -3.9203
   XZ=    10.9799   YZ=    -3.0722   ZZ=   234.9687
   Eigenvalues:   194.1618   200.0556   238.5395
     54  O    Isotropic =    76.0715   Anisotropy =   404.4627
   XX=   282.5945   YX=  -142.7812   ZX=   -18.4995
   XY=  -148.9736   YY=     8.5416   ZY=    -0.3767
   XZ=    10.2353   YZ=   -12.1720   ZZ=   -62.9215
   Eigenvalues:   -67.2459   -50.2528   345.7133
     55  H    Isotropic =    26.5579   Anisotropy =    15.7518
   XX=    30.4100   YX=     6.2188   ZX=     0.6295
   XY=     8.8752   YY=    28.3819   ZY=    -0.7157
   XZ=    -1.2710   YZ=    -1.2359   ZZ=    20.8819
   Eigenvalues:    20.6020    22.0127    37.0591
     56  H    Isotropic =    25.6957   Anisotropy =     5.8381
   XX=    25.5492   YX=     1.4117   ZX=     3.8577
   XY=     1.4597   YY=    25.6581   ZY=    -1.6329
   XZ=     3.8472   YZ=    -1.7792   ZZ=    25.8798
   Eigenvalues:    20.8375    26.6618    29.5878
     57  H    Isotropic =    26.5454   Anisotropy =     7.7042
   XX=    25.2782   YX=     3.4175   ZX=     2.7181
   XY=     3.0183   YY=    29.1297   ZY=    -3.7762
   XZ=     2.4114   YZ=    -3.3058   ZZ=    25.2283
   Eigenvalues:    20.1438    27.8109    31.6815
     58  H    Isotropic =    32.0233   Anisotropy =    14.9352
   XX=    40.9520   YX=     3.0379   ZX=     0.3009
   XY=     3.8127   YY=    28.5259   ZY=    -1.4062
   XZ=    -2.7959   YZ=    -0.9251   ZZ=    26.5920
   Eigenvalues:    26.0343    28.0555    41.9801
     59  H    Isotropic =    33.1532   Anisotropy =     9.8413
   XX=    37.2977   YX=    -0.0861   ZX=    -4.5084
   XY=     2.9667   YY=    32.9370   ZY=    -2.7298
   XZ=    -3.7939   YZ=    -1.2376   ZZ=    29.2249
   Eigenvalues:    27.1737    32.5719    39.7141
     60  H    Isotropic =    32.2292   Anisotropy =    12.4031
   XX=    27.8788   YX=    -3.1015   ZX=     2.0576
   XY=    -1.4298   YY=    29.6365   ZY=     3.5251
   XZ=     2.5482   YZ=     3.4554   ZZ=    39.1722
   Eigenvalues:    25.2198    30.9697    40.4979
     61  H    Isotropic =    32.4283   Anisotropy =    13.4496
   XX=    28.0809   YX=    -0.9078   ZX=    -0.2935
   XY=    -0.9536   YY=    37.6636   ZY=     5.9214
   XZ=    -0.4660   YZ=     6.0398   ZZ=    31.5402
   Eigenvalues:    27.7725    28.1177    41.3946
     62  H    Isotropic =    32.8120   Anisotropy =    18.5567
   XX=    44.6850   YX=    -2.2907   ZX=    -2.0851
   XY=    -1.4612   YY=    26.6413   ZY=    -0.4870
   XZ=    -2.6981   YZ=    -0.1315   ZZ=    27.1098
   Eigenvalues:    26.0504    27.2025    45.1832
     63  H    Isotropic =    32.0887   Anisotropy =    14.1432
   XX=    39.4585   YX=     1.8352   ZX=     4.6427
   XY=     0.7143   YY=    26.8615   ZY=    -1.4719
   XZ=     5.0243   YZ=    -0.9812   ZZ=    29.9462
   Eigenvalues:    25.6628    29.0858    41.5175
     64  H    Isotropic =    31.9329   Anisotropy =    15.5447
   XX=    26.2177   YX=    -0.9162   ZX=    -1.7326
   XY=    -0.9524   YY=    27.4439   ZY=     0.0153
   XZ=    -1.3021   YZ=     0.7709   ZZ=    42.1372
   Eigenvalues:    25.6309    27.8718    42.2960
     65  H    Isotropic =    32.7246   Anisotropy =    17.2894
   XX=    27.8480   YX=    -3.4554   ZX=     3.0050
   XY=    -3.1364   YY=    35.3534   ZY=    -7.8523
   XZ=     2.6376   YZ=    -8.0333   ZZ=    34.9722
   Eigenvalues:    26.5862    27.3366    44.2508
     66  H    Isotropic =    32.6069   Anisotropy =    12.4802
   XX=    37.1505   YX=     4.0661   ZX=    -3.3767
   XY=     3.8467   YY=    29.8366   ZY=    -3.6587
   XZ=    -3.2260   YZ=    -3.5750   ZZ=    30.8338
   Eigenvalues:    26.5904    30.3033    40.9271
     67  H    Isotropic =    32.7960   Anisotropy =    14.1195
   XX=    41.4656   YX=    -3.0711   ZX=    -1.1282
   XY=    -3.1530   YY=    28.4934   ZY=    -2.0775
   XZ=    -1.2364   YZ=    -2.0971   ZZ=    28.4290
   Eigenvalues:    25.7747    30.4042    42.2090
     68  H    Isotropic =    32.5475   Anisotropy =    14.0378
   XX=    26.9654   YX=     1.2049   ZX=     0.8869
   XY=     0.4991   YY=    41.7660   ZY=     1.0189
   XZ=     0.6579   YZ=     1.0702   ZZ=    28.9111
   Eigenvalues:    26.6814    29.0550    41.9061
     69  H    Isotropic =    32.4576   Anisotropy =    11.4669
   XX=    27.6055   YX=     1.1087   ZX=    -3.6905
   XY=     0.1535   YY=    38.7985   ZY=     4.9779
   XZ=    -2.7219   YZ=     1.8482   ZZ=    30.9687
   Eigenvalues:    25.2470    32.0235    40.1022
     70  H    Isotropic =    32.9937   Anisotropy =    12.0088
   XX=    40.4455   YX=    -2.4059   ZX=     1.3584
   XY=    -2.3281   YY=    28.1370   ZY=     2.4428
   XZ=     1.4545   YZ=     0.7799   ZZ=    30.3986
   Eigenvalues:    26.7474    31.2342    40.9996
     71  H    Isotropic =    31.9368   Anisotropy =    16.2739
   XX=    28.1137   YX=    -3.7449   ZX=    -5.2229
   XY=    -2.4976   YY=    29.0665   ZY=     5.5992
   XZ=    -3.7855   YZ=     4.5188   ZZ=    38.6301
   Eigenvalues:    25.4303    27.5940    42.7860
     72  H    Isotropic =    32.0250   Anisotropy =    10.2595
   XX=    35.8708   YX=     3.3431   ZX=    -3.5496
   XY=     3.2074   YY=    29.7620   ZY=    -0.6486
   XZ=    -3.2651   YZ=    -1.9127   ZZ=    30.4421
   Eigenvalues:    28.2885    28.9218    38.8646
     73  H    Isotropic =    31.4061   Anisotropy =    10.4576
   XX=    33.9091   YX=     2.3911   ZX=    -4.0317
   XY=     1.3245   YY=    26.5995   ZY=    -2.6848
   XZ=    -3.4043   YZ=    -2.5503   ZZ=    33.7096
   Eigenvalues:    25.6820    30.1584    38.3778
     74  H    Isotropic =    32.2617   Anisotropy =    14.5217
   XX=    29.6860   YX=     4.5833   ZX=     2.9184
   XY=     3.7288   YY=    40.0016   ZY=     1.6212
   XZ=     2.8303   YZ=     1.9211   ZZ=    27.0975
   Eigenvalues:    25.1889    29.6533    41.9429
     75  H    Isotropic =    31.2495   Anisotropy =    12.2422
   XX=    30.2447   YX=     2.2153   ZX=     5.1136
   XY=     1.6987   YY=    30.0111   ZY=     5.0743
   XZ=     4.9644   YZ=     3.4092   ZZ=    33.4928
   Eigenvalues:    26.1468    28.1907    39.4110
     76  H    Isotropic =    30.6437   Anisotropy =     8.0658
   XX=    31.8267   YX=    -2.4536   ZX=    -0.4762
   XY=    -3.2438   YY=    31.1710   ZY=     3.6655
   XZ=    -1.0635   YZ=     4.2883   ZZ=    28.9334
   Eigenvalues:    25.6881    30.2222    36.0209
     77  H    Isotropic =    30.5393   Anisotropy =    12.1496
   XX=    33.2700   YX=    -2.9442   ZX=     4.9678
   XY=    -3.0317   YY=    27.0820   ZY=    -3.6511
   XZ=     3.9915   YZ=    -3.3579   ZZ=    31.2660
   Eigenvalues:    25.0606    27.9183    38.6391
     78  H    Isotropic =    30.5703   Anisotropy =    11.8937
   XX=    36.5650   YX=     3.8862   ZX=    -0.8443
   XY=     4.0841   YY=    28.7419   ZY=    -1.3750
   XZ=    -1.5744   YZ=    -2.0210   ZZ=    26.4040
   Eigenvalues:    25.4258    27.7857    38.4994
     79  H    Isotropic =    31.9156   Anisotropy =    10.8217
   XX=    30.7279   YX=    -1.4390   ZX=    -3.7039
   XY=    -0.0534   YY=    26.9767   ZY=    -0.0591
   XZ=    -2.3412   YZ=    -0.3232   ZZ=    38.0422
   Eigenvalues:    26.7713    29.8454    39.1300
     80  H    Isotropic =    30.7073   Anisotropy =    14.8469
   XX=    29.9029   YX=    -3.3920   ZX=     5.3874
   XY=    -2.9475   YY=    30.9611   ZY=    -5.8154
   XZ=     5.8516   YZ=    -5.7804   ZZ=    31.2578
   Eigenvalues:    24.2508    27.2657    40.6052
     81  H    Isotropic =    30.8789   Anisotropy =    10.7996
   XX=    30.9215   YX=     4.6570   ZX=     4.1210
   XY=     5.1154   YY=    29.2558   ZY=     0.5041
   XZ=     5.0856   YZ=     0.8492   ZZ=    32.4594
   Eigenvalues:    24.2437    30.3144    38.0787
     82  H    Isotropic =    30.0889   Anisotropy =    11.5419
   XX=    27.3284   YX=     3.0784   ZX=     0.1798
   XY=    -0.0101   YY=    32.6750   ZY=    -6.2886
   XZ=     1.8780   YZ=    -6.0515   ZZ=    30.2632
   Eigenvalues:    24.1809    28.3022    37.7834
     83  H    Isotropic =    30.0412   Anisotropy =    11.5903
   XX=    27.4378   YX=    -3.7495   ZX=    -0.3718
   XY=    -0.5544   YY=    32.5390   ZY=     6.2226
   XZ=     1.5862   YZ=     6.0744   ZZ=    30.1468
   Eigenvalues:    24.0472    28.3084    37.7681
     84  H    Isotropic =    27.1379   Anisotropy =    14.2496
   XX=    32.0024   YX=    -5.5094   ZX=     0.2355
   XY=    -7.7162   YY=    26.9950   ZY=     0.6174
   XZ=    -1.7026   YZ=     0.7208   ZZ=    22.4163
   Eigenvalues:    22.2488    22.5272    36.6376
     85  H    Isotropic =    25.5768   Anisotropy =     5.8871
   XX=    25.2657   YX=    -1.3588   ZX=     3.6539
   XY=    -1.2881   YY=    25.2869   ZY=     1.9968
   XZ=     3.6371   YZ=     1.9640   ZZ=    26.1779
   Eigenvalues:    20.8429    26.3860    29.5016
     86  H    Isotropic =    26.3648   Anisotropy =     7.2443
   XX=    25.4854   YX=    -3.5499   ZX=     2.4329
   XY=    -3.0041   YY=    28.1042   ZY=     4.0161
   XZ=     1.9601   YZ=     3.3458   ZZ=    25.5047
   Eigenvalues:    20.2232    27.6768    31.1943
     87  H    Isotropic =    32.1757   Anisotropy =     9.4025
   XX=    37.2632   YX=    -2.3407   ZX=     2.5066
   XY=    -3.6343   YY=    30.0048   ZY=     1.4611
   XZ=     0.4010   YZ=     0.7893   ZZ=    29.2592
   Eigenvalues:    27.4968    30.5863    38.4441
     88  H    Isotropic =    33.0820   Anisotropy =     8.4998
   XX=    36.1416   YX=     1.2240   ZX=    -4.9356
   XY=    -2.3301   YY=    33.5923   ZY=     3.0485
   XZ=    -3.6761   YZ=     1.6683   ZZ=    29.5121
   Eigenvalues:    26.8563    33.6413    38.7486
     89  H    Isotropic =    32.0802   Anisotropy =    11.6610
   XX=    28.4638   YX=     3.1222   ZX=     1.0515
   XY=     0.9126   YY=    30.1149   ZY=    -4.6504
   XZ=     1.3354   YZ=    -4.5802   ZZ=    37.6619
   Eigenvalues:    25.8443    30.5421    39.8542
     90  H    Isotropic =    32.2654   Anisotropy =    13.4460
   XX=    31.6270   YX=     5.1333   ZX=    -2.7338
   XY=     4.3704   YY=    35.3071   ZY=    -4.6457
   XZ=    -2.7617   YZ=    -4.9283   ZZ=    29.8619
   Eigenvalues:    27.0773    28.4894    41.2294
     91  H    Isotropic =    33.0934   Anisotropy =    19.2844
   XX=    45.9045   YX=     0.0182   ZX=     0.3130
   XY=    -1.7609   YY=    27.3096   ZY=     1.0888
   XZ=    -0.8433   YZ=     0.2797   ZZ=    26.0662
   Eigenvalues:    25.7627    27.5679    45.9497
     92  H    Isotropic =    32.2758   Anisotropy =    10.4672
   XX=    35.0380   YX=    -3.0729   ZX=     4.5278
   XY=    -2.4981   YY=    29.2317   ZY=    -0.2665
   XZ=     4.8674   YZ=    -0.4428   ZZ=    32.5576
   Eigenvalues:    27.4012    30.1722    39.2539
     93  H    Isotropic =    30.9511   Anisotropy =    14.8546
   XX=    26.4584   YX=     1.6283   ZX=    -3.1872
   XY=     0.7229   YY=    26.6311   ZY=     0.9357
   XZ=    -4.5758   YZ=     1.2711   ZZ=    39.7638
   Eigenvalues:    24.4607    27.5385    40.8541
     94  H    Isotropic =    32.3956   Anisotropy =    16.3506
   XX=    29.7293   YX=     4.9094   ZX=     4.1319
   XY=     4.1249   YY=    32.0741   ZY=     6.5004
   XZ=     3.8358   YZ=     7.0363   ZZ=    35.3834
   Eigenvalues:    25.9249    27.9658    43.2960
     95  H    Isotropic =    31.1032   Anisotropy =    14.0352
   XX=    32.6678   YX=    -5.8237   ZX=    -2.8723
   XY=    -6.4363   YY=    32.1322   ZY=     3.6479
   XZ=    -3.0732   YZ=     3.9900   ZZ=    28.5094
   Eigenvalues:    25.7517    27.0978    40.4600
     96  H    Isotropic =    32.8403   Anisotropy =    15.5808
   XX=    43.0538   YX=     2.0517   ZX=    -0.4113
   XY=     1.2856   YY=    26.4693   ZY=     2.7634
   XZ=    -0.7771   YZ=     2.6886   ZZ=    28.9979
   Eigenvalues:    24.5673    30.7262    43.2275
     97  H    Isotropic =    32.1539   Anisotropy =    13.4819
   XX=    26.9577   YX=     1.5462   ZX=     0.1234
   XY=     1.0949   YY=    40.9572   ZY=    -0.9772
   XZ=    -0.0470   YZ=    -0.7935   ZZ=    28.5469
   Eigenvalues:    26.8256    28.4943    41.1418
     98  H    Isotropic =    31.2999   Anisotropy =    12.4112
   XX=    39.5180   YX=    -0.2786   ZX=     0.2972
   XY=     0.1874   YY=    26.0460   ZY=    -1.9496
   XZ=     1.2549   YZ=    -1.9283   ZZ=    28.3356
   Eigenvalues:    24.9309    29.3947    39.5740
     99  H    Isotropic =    32.6706   Anisotropy =    11.5230
   XX=    29.7429   YX=     2.7395   ZX=    -3.3282
   XY=     5.1384   YY=    38.7126   ZY=    -1.0097
   XZ=    -2.6905   YZ=     0.5858   ZZ=    29.5563
   Eigenvalues:    26.0468    31.6123    40.3526
    100  H    Isotropic =    31.0391   Anisotropy =    15.5996
   XX=    29.8454   YX=     2.2005   ZX=    -6.2438
   XY=     4.2364   YY=    27.8703   ZY=    -4.4096
   XZ=    -6.6888   YZ=    -3.1013   ZZ=    35.4016
   Eigenvalues:    25.2009    26.4776    41.4388
    101  H    Isotropic =    31.8902   Anisotropy =    10.5923
   XX=    30.9634   YX=    -4.0193   ZX=     1.8671
   XY=    -4.7282   YY=    32.7954   ZY=    -4.7347
   XZ=     1.8793   YZ=    -3.1799   ZZ=    31.9116
   Eigenvalues:    27.0406    29.6781    38.9517
    102  H    Isotropic =    29.8832   Anisotropy =    11.9665
   XX=    33.6604   YX=    -4.6761   ZX=    -1.8018
   XY=    -5.4724   YY=    27.5734   ZY=     3.3636
   XZ=    -1.5052   YZ=     4.7348   ZZ=    28.4159
   Eigenvalues:    23.0617    28.7271    37.8609
    103  H    Isotropic =    31.7863   Anisotropy =    13.5341
   XX=    28.8048   YX=    -0.7066   ZX=     1.9508
   XY=    -1.8129   YY=    38.3542   ZY=    -5.0498
   XZ=     1.9296   YZ=    -5.2309   ZZ=    28.1997
   Eigenvalues:    25.4967    29.0531    40.8090
    104  H    Isotropic =    31.3703   Anisotropy =    12.2508
   XX=    29.3503   YX=    -2.8923   ZX=     4.6484
   XY=    -3.4541   YY=    29.0973   ZY=    -3.3515
   XZ=     2.8164   YZ=    -4.0585   ZZ=    35.6632
   Eigenvalues:    26.0467    28.5266    39.5375
    105  H    Isotropic =    30.5570   Anisotropy =     7.6402
   XX=    32.1343   YX=    -0.0167   ZX=    -2.3220
   XY=     0.3184   YY=    28.3606   ZY=    -4.6269
   XZ=    -3.0891   YZ=    -3.4898   ZZ=    31.1762
   Eigenvalues:    25.1461    30.8745    35.6505
    106  H    Isotropic =    30.6315   Anisotropy =    12.6022
   XX=    32.9484   YX=    -5.5654   ZX=    -2.6888
   XY=    -4.7761   YY=    31.6836   ZY=     3.0401
   XZ=    -2.7209   YZ=     3.5394   ZZ=    27.2625
   Eigenvalues:    25.5089    27.3526    39.0330
    107  H    Isotropic =    30.5796   Anisotropy =    11.7272
   XX=    36.3856   YX=     0.2184   ZX=     4.1757
   XY=     0.8315   YY=    26.2012   ZY=     1.6637
   XZ=     4.1895   YZ=     1.3122   ZZ=    29.1521
   Eigenvalues:    25.4056    27.9355    38.3978
    108  H    Isotropic =    31.4460   Anisotropy =    11.8841
   XX=    31.8395   YX=    -4.7777   ZX=     5.5994
   XY=    -5.5100   YY=    29.5604   ZY=    -0.2814
   XZ=     5.3692   YZ=    -0.0563   ZZ=    32.9381
   Eigenvalues:    23.9553    31.0140    39.3688
    109  H    Isotropic =    30.7131   Anisotropy =    15.2865
   XX=    28.4310   YX=     3.1880   ZX=     5.6289
   XY=     2.7654   YY=    31.6446   ZY=     5.7831
   XZ=     5.4719   YZ=     6.3275   ZZ=    32.0635
   Eigenvalues:    24.0711    27.1640    40.9041
    110  H    Isotropic =    31.8581   Anisotropy =    10.7027
   XX=    30.4520   YX=     2.5188   ZX=    -3.1658
   XY=     1.1443   YY=    27.2101   ZY=    -1.0798
   XZ=    -2.4073   YZ=    -0.5241   ZZ=    37.9121
   Eigenvalues:    26.3679    30.2131    38.9932
 End of Minotr F.D. properties file   721 does not exist.
 End of Minotr F.D. properties file   722 does not exist.
 End of Minotr F.D. properties file   788 does not exist.
 Hyperfine terms turned off by default for NAtoms > 100.

 **********************************************************************

            Population analysis using the SCF Density.

 **********************************************************************

 Orbital symmetries:
       Occupied  (A) (A) (A) (A) (A) (A) (A) (A) (A) (A) (A) (A)
                 (A) (A) (A) (A) (A) (A) (A) (A) (A) (A) (A) (A)
                 (A) (A) (A) (A) (A) (A) (A) (A) (A) (A) (A) (A)
                 (A) (A) (A) (A) (A) (A) (A) (A) (A) (A) (A) (A)
                 (A) (A) (A) (A) (A) (A) (A) (A) (A) (A) (A) (A)
                 (A) (A) (A) (A) (A) (A) (A) (A) (A) (A) (A) (A)
                 (A) (A) (A) (A) (A) (A) (A) (A) (A) (A) (A) (A)
                 (A) (A) (A) (A) (A) (A) (A) (A) (A) (A) (A) (A)
                 (A) (A) (A) (A) (A) (A) (A) (A) (A) (A) (A) (A)
                 (A) (A) (A) (A) (A) (A) (A) (A) (A) (A) (A) (A)
                 (A) (A) (A) (A) (A) (A) (A) (A) (A) (A) (A) (A)
                 (A) (A) (A) (A) (A) (A) (A) (A) (A) (A) (A) (A)
                 (A) (A) (A) (A) (A) (A) (A) (A) (A) (A) (A) (A)
                 (A) (A) (A) (A) (A) (A) (A) (A) (A) (A) (A) (A)
                 (A) (A) (A) (A) (A) (A) (A) (A) (A) (A) (A) (A)
                 (A) (A) (A) (A) (A) (A) (A) (A) (A) (A) (A) (A)
                 (A) (A) (A) (A) (A)
       Virtual   (A) (A) (A) (A) (A) (A) (A) (A) (A) (A) (A) (A)
                 (A) (A) (A) (A) (A) (A) (A) (A) (A) (A) (A) (A)
                 (A) (A) (A) (A) (A) (A) (A) (A) (A) (A) (A) (A)
                 (A) (A) (A) (A) (A) (A) (A) (A) (A) (A) (A) (A)
                 (A) (A) (A) (A) (A) (A) (A) (A) (A) (A) (A) (A)
                 (A) (A) (A) (A) (A) (A) (A) (A) (A) (A) (A) (A)
                 (A) (A) (A) (A) (A) (A) (A) (A) (A) (A) (A) (A)
                 (A) (A) (A) (A) (A) (A) (A) (A) (A) (A) (A) (A)
                 (A) (A) (A) (A) (A) (A) (A) (A) (A) (A) (A) (A)
                 (A) (A) (A) (A) (A) (A) (A) (A) (A) (A) (A) (A)
                 (A) (A) (A) (A) (A) (A) (A) (A) (A)
 The electronic state is 1-A.
 Alpha  occ. eigenvalues --  -20.30793 -20.28570 -20.24811 -20.22605 -19.92298
 Alpha  occ. eigenvalues --  -15.48379 -15.33785 -15.33418 -15.30690 -11.16708
 Alpha  occ. eigenvalues --  -11.14821 -11.10693 -11.09905 -11.09714 -11.09386
 Alpha  occ. eigenvalues --  -11.09323 -11.08868 -11.08790 -11.08221 -11.07960
 Alpha  occ. eigenvalues --  -11.07334 -11.07022 -11.06673 -11.06493 -11.06441
 Alpha  occ. eigenvalues --  -11.06234 -11.05903 -11.05806 -11.05784 -11.05743
 Alpha  occ. eigenvalues --  -11.05634 -11.05435 -11.05021 -11.04732 -11.04639
 Alpha  occ. eigenvalues --  -11.04560 -11.04442 -11.04379 -11.04375 -11.04342
 Alpha  occ. eigenvalues --  -11.04117 -11.03818 -11.03728 -11.03311 -11.02216
 Alpha  occ. eigenvalues --  -11.02193 -11.02188 -11.01993 -11.01896 -11.01886
 Alpha  occ. eigenvalues --  -11.01807 -11.01648 -11.01495 -11.01434  -1.38030
 Alpha  occ. eigenvalues --   -1.35818  -1.29757  -1.27834  -1.25568  -1.21673
 Alpha  occ. eigenvalues --   -1.20859  -1.19044  -1.10664  -1.09933  -1.09000
 Alpha  occ. eigenvalues --   -1.07646  -1.05945  -1.05091  -1.02959  -1.00986
 Alpha  occ. eigenvalues --   -0.99338  -0.98900  -0.98669  -0.97551  -0.97051
 Alpha  occ. eigenvalues --   -0.96683  -0.95369  -0.94698  -0.94106  -0.92415
 Alpha  occ. eigenvalues --   -0.91854  -0.91726  -0.89683  -0.89403  -0.88084
 Alpha  occ. eigenvalues --   -0.86668  -0.85013  -0.82853  -0.82207  -0.81327
 Alpha  occ. eigenvalues --   -0.80519  -0.79830  -0.78443  -0.77917  -0.77614
 Alpha  occ. eigenvalues --   -0.77323  -0.74596  -0.74201  -0.72863  -0.72292
 Alpha  occ. eigenvalues --   -0.71398  -0.70432  -0.69608  -0.68448  -0.66159
 Alpha  occ. eigenvalues --   -0.65318  -0.65058  -0.64705  -0.63748  -0.63012
 Alpha  occ. eigenvalues --   -0.62622  -0.62463  -0.61668  -0.61458  -0.61321
 Alpha  occ. eigenvalues --   -0.60816  -0.59941  -0.59241  -0.58938  -0.58601
 Alpha  occ. eigenvalues --   -0.58403  -0.58321  -0.57969  -0.57939  -0.57425
 Alpha  occ. eigenvalues --   -0.57000  -0.56875  -0.56224  -0.55713  -0.55351
 Alpha  occ. eigenvalues --   -0.55078  -0.54872  -0.54749  -0.54608  -0.54421
 Alpha  occ. eigenvalues --   -0.54126  -0.53614  -0.53332  -0.53256  -0.52259
 Alpha  occ. eigenvalues --   -0.51962  -0.51716  -0.51125  -0.50963  -0.50439
 Alpha  occ. eigenvalues --   -0.50113  -0.49648  -0.49308  -0.49276  -0.48608
 Alpha  occ. eigenvalues --   -0.48442  -0.48275  -0.47806  -0.47635  -0.47282
 Alpha  occ. eigenvalues --   -0.47039  -0.46240  -0.46045  -0.45861  -0.45251
 Alpha  occ. eigenvalues --   -0.45059  -0.44933  -0.44658  -0.44401  -0.43872
 Alpha  occ. eigenvalues --   -0.43624  -0.43396  -0.43337  -0.42806  -0.42673
 Alpha  occ. eigenvalues --   -0.42443  -0.42257  -0.41561  -0.40957  -0.40729
 Alpha  occ. eigenvalues --   -0.40509  -0.40076  -0.38965  -0.38588  -0.38397
 Alpha  occ. eigenvalues --   -0.37665  -0.37516  -0.36696  -0.35665  -0.34411
 Alpha  occ. eigenvalues --   -0.33504  -0.33235  -0.32251  -0.31278  -0.30575
 Alpha  occ. eigenvalues --   -0.27424  -0.27065  -0.26251  -0.21308  -0.20386
 Alpha  occ. eigenvalues --   -0.16232  -0.15709
 Alpha virt. eigenvalues --    0.26688   0.27407   0.27664   0.28307   0.30282
 Alpha virt. eigenvalues --    0.32782   0.45556   0.47882   0.48508   0.48540
 Alpha virt. eigenvalues --    0.49142   0.49785   0.50004   0.51310   0.51975
 Alpha virt. eigenvalues --    0.53703   0.54857   0.55263   0.55431   0.55506
 Alpha virt. eigenvalues --    0.56722   0.57288   0.57765   0.58484   0.58842
 Alpha virt. eigenvalues --    0.59135   0.59595   0.59951   0.60585   0.61073
 Alpha virt. eigenvalues --    0.61148   0.61465   0.61741   0.62550   0.62858
 Alpha virt. eigenvalues --    0.62973   0.63489   0.63812   0.64150   0.64321
 Alpha virt. eigenvalues --    0.64584   0.64955   0.65169   0.65404   0.65460
 Alpha virt. eigenvalues --    0.65959   0.66393   0.66556   0.66694   0.67102
 Alpha virt. eigenvalues --    0.67399   0.67649   0.67903   0.68103   0.68238
 Alpha virt. eigenvalues --    0.68714   0.69027   0.69303   0.69437   0.69750
 Alpha virt. eigenvalues --    0.70041   0.70297   0.70492   0.70617   0.70830
 Alpha virt. eigenvalues --    0.71075   0.71120   0.71334   0.71400   0.72208
 Alpha virt. eigenvalues --    0.72781   0.72956   0.73060   0.73387   0.73762
 Alpha virt. eigenvalues --    0.73860   0.74131   0.74372   0.74504   0.74724
 Alpha virt. eigenvalues --    0.74812   0.75131   0.75749   0.75927   0.76030
 Alpha virt. eigenvalues --    0.76422   0.76457   0.76639   0.77333   0.77529
 Alpha virt. eigenvalues --    0.77860   0.78301   0.78578   0.78949   0.79043
 Alpha virt. eigenvalues --    0.79447   0.79767   0.80131   0.80465   0.80548
 Alpha virt. eigenvalues --    0.80904   0.81033   0.81258   0.81744   0.82095
 Alpha virt. eigenvalues --    0.82659   0.83887   0.84065   0.84307   0.84467
 Alpha virt. eigenvalues --    0.85752   0.86108   0.86542   0.87116   0.87555
 Alpha virt. eigenvalues --    0.88010   0.89233   0.90682   0.91396   0.94142
 Alpha virt. eigenvalues --    0.94748   0.95573   0.97634   1.01224   1.03282
 Alpha virt. eigenvalues --    1.10109   1.11547   1.15678   1.16152
          Condensed to atoms (all electrons):
 Mulliken charges:
               1
     1  C   -0.074425
     2  C   -0.001604
     3  C   -0.064048
     4  C   -0.091322
     5  C    0.088876
     6  C   -0.013750
     7  N   -0.286534
     8  C    0.018246
     9  C    0.128449
    10  C    0.041192
    11  C   -0.114657
    12  C   -0.106079
    13  C    0.027904
    14  N   -0.291305
    15  C   -0.014494
    16  C   -0.108295
    17  C   -0.102131
    18  C   -0.105354
    19  C   -0.019164
    20  C   -0.110481
    21  C   -0.066392
    22  C    0.319620
    23  O   -0.276225
    24  O   -0.255611
    25  C   -0.055823
    26  C   -0.078755
    27  C   -0.110356
    28  C    0.000955
    29  C   -0.079315
    30  C   -0.061934
    31  C   -0.090052
    32  C    0.095195
    33  C   -0.013503
    34  N   -0.280853
    35  C    0.015211
    36  C    0.134896
    37  C    0.039712
    38  C   -0.116370
    39  C   -0.105527
    40  C    0.039930
    41  N   -0.081145
    42  C   -0.003176
    43  C   -0.097170
    44  C   -0.099328
    45  C   -0.098135
    46  C   -0.004759
    47  C   -0.098471
    48  C   -0.058512
    49  C    0.327393
    50  O   -0.275163
    51  O   -0.255962
    52  C   -0.054052
    53  C   -0.077541
    54  O   -0.461336
    55  H    0.068378
    56  H    0.055464
    57  H    0.057878
    58  H    0.054668
    59  H    0.051237
    60  H    0.050556
    61  H    0.048635
    62  H    0.048050
    63  H    0.053319
    64  H    0.062191
    65  H    0.053859
    66  H    0.050999
    67  H    0.049756
    68  H    0.051609
    69  H    0.064012
    70  H    0.063515
    71  H    0.057775
    72  H    0.051274
    73  H    0.068623
    74  H    0.051431
    75  H    0.064761
    76  H    0.075009
    77  H    0.077397
    78  H    0.072539
    79  H    0.054016
    80  H    0.072422
    81  H    0.076923
    82  H    0.059530
    83  H    0.061789
    84  H    0.054575
    85  H    0.056997
    86  H    0.060744
    87  H    0.053815
    88  H    0.056232
    89  H    0.049341
    90  H    0.052261
    91  H    0.045726
    92  H    0.055288
    93  H    0.084840
    94  H    0.057631
    95  H    0.081282
    96  H    0.045692
    97  H    0.058486
    98  H    0.095873
    99  H    0.068000
   100  H    0.089727
   101  H    0.056384
   102  H    0.102021
   103  H    0.044659
   104  H    0.062092
   105  H    0.078229
   106  H    0.074089
   107  H    0.067472
   108  H    0.072061
   109  H    0.075512
   110  H    0.054889
 Sum of Mulliken charges =  -0.00000
 Mulliken charges with hydrogens summed into heavy atoms:
               1
     1  C   -0.006046
     2  C   -0.001604
     3  C   -0.008584
     4  C   -0.033444
     5  C    0.088876
     6  C   -0.013750
     7  N   -0.286534
     8  C    0.018246
     9  C    0.128449
    10  C    0.095860
    11  C   -0.012864
    12  C   -0.009394
    13  C    0.027904
    14  N   -0.291305
    15  C    0.101016
    16  C   -0.003437
    17  C   -0.000766
    18  C    0.022174
    19  C    0.089884
    20  C    0.009572
    21  C   -0.001632
    22  C    0.319620
    23  O   -0.276225
    24  O   -0.255611
    25  C    0.169123
    26  C    0.124606
    27  C    0.010963
    28  C    0.000955
    29  C   -0.024741
    30  C   -0.004937
    31  C   -0.029309
    32  C    0.095195
    33  C   -0.013503
    34  N   -0.280853
    35  C    0.015211
    36  C    0.134896
    37  C    0.093528
    38  C   -0.010797
    39  C   -0.007540
    40  C    0.039930
    41  N   -0.081145
    42  C    0.136951
    43  C    0.041743
    44  C    0.004850
    45  C    0.065737
    46  C    0.141351
    47  C    0.048209
    48  C    0.003580
    49  C    0.327393
    50  O   -0.275163
    51  O   -0.255962
    52  C    0.165738
    53  C    0.124921
    54  O   -0.461336
 Electronic spatial extent (au):  <R**2>=          35925.6730
 Charge=             -0.0000 electrons
 Dipole moment (field-independent basis, Debye):
    X=             -3.9467    Y=             -1.6472    Z=             -1.4282  Tot=              4.5088
 Quadrupole moment (field-independent basis, Debye-Ang):
   XX=           -322.8984   YY=           -299.0969   ZZ=           -289.6742
   XY=              1.0007   XZ=             15.0773   YZ=             -4.2419
 Traceless Quadrupole moment (field-independent basis, Debye-Ang):
   XX=            -19.0086   YY=              4.7929   ZZ=             14.2156
   XY=              1.0007   XZ=             15.0773   YZ=             -4.2419
 Octapole moment (field-independent basis, Debye-Ang**2):
  XXX=           -172.7314  YYY=            -26.5126  ZZZ=            -20.5601  XYY=            -11.5573
  XXY=            -29.4246  XXZ=            -29.6026  XZZ=             24.2850  YZZ=              4.8925
  YYZ=             -5.0438  XYZ=            -30.9939
 Hexadecapole moment (field-independent basis, Debye-Ang**3):
 XXXX=         -30464.8142 YYYY=          -7467.3959 ZZZZ=          -5790.4063 XXXY=           -480.4408
 XXXZ=            629.2367 YYYX=             -3.0866 YYYZ=             35.0594 ZZZX=             70.6193
 ZZZY=              1.4458 XXYY=          -6488.9635 XXZZ=          -6140.6610 YYZZ=          -2177.2821
 XXYZ=            -86.0757 YYXZ=              3.8975 ZZXY=             24.1820
 N-N= 8.228099894317D+03 E-N=-2.183219822430D+04  KE= 2.279084612309D+03
 ******************************Gaussian NBO Version 3.1******************************
             N A T U R A L   A T O M I C   O R B I T A L   A N D
          N A T U R A L   B O N D   O R B I T A L   A N A L Y S I S
 ******************************Gaussian NBO Version 3.1******************************
       /RESON  / : Allow strongly delocalized NBO set
       /NLMO   / : Form Natural Localized Molecular Orbitals
       /NMR /    : Analyze NMR Sheilding Tensor 

 Analyzing the SCF density

 Job title: Pleiokomenine_C_2                                               

 Storage needed:    355564 in NPA,    438187 in NBO,   2133784 in NLMO ( 104796000 available)
 GSVD:  LWork=     -108884 too small for GESVD, short by      536270 words or      536270 for optimal perf.


 NATURAL POPULATIONS:  Natural atomic orbital occupancies 
                                                          
   NAO  Atom  No  lang   Type(AO)    Occupancy      Energy
 ----------------------------------------------------------
     1    C    1  S      Cor( 1S)     1.99993     -10.94423
     2    C    1  S      Val( 2S)     1.08038      -0.17643
     3    C    1  px     Val( 2p)     0.99781       0.08994
     4    C    1  py     Val( 2p)     0.98678       0.11017
     5    C    1  pz     Val( 2p)     0.99072       0.12545
 
     6    C    2  S      Cor( 1S)     1.99990     -10.95497
     7    C    2  S      Val( 2S)     1.07980      -0.18361
     8    C    2  px     Val( 2p)     0.96863       0.10711
     9    C    2  py     Val( 2p)     0.96825       0.12494
    10    C    2  pz     Val( 2p)     0.97094       0.13695
 
    11    C    3  S      Cor( 1S)     1.99994     -10.94696
    12    C    3  S      Val( 2S)     1.08432      -0.18253
    13    C    3  px     Val( 2p)     0.98637       0.09761
    14    C    3  py     Val( 2p)     0.98378       0.11211
    15    C    3  pz     Val( 2p)     0.98153       0.12317
 
    16    C    4  S      Cor( 1S)     1.99993     -10.94045
    17    C    4  S      Val( 2S)     1.07181      -0.17323
    18    C    4  px     Val( 2p)     1.01500       0.08622
    19    C    4  py     Val( 2p)     0.99877       0.11076
    20    C    4  pz     Val( 2p)     1.00294       0.11626
 
    21    C    5  S      Cor( 1S)     1.99985     -10.98786
    22    C    5  S      Val( 2S)     1.05910      -0.18418
    23    C    5  px     Val( 2p)     0.90844       0.10357
    24    C    5  py     Val( 2p)     0.93982       0.12985
    25    C    5  pz     Val( 2p)     0.98075       0.10840
 
    26    C    6  S      Cor( 1S)     1.99990     -10.94607
    27    C    6  S      Val( 2S)     1.08331      -0.18735
    28    C    6  px     Val( 2p)     0.99030       0.10764
    29    C    6  py     Val( 2p)     0.97887       0.11234
    30    C    6  pz     Val( 2p)     0.97284       0.12366
 
    31    N    7  S      Cor( 1S)     1.99998     -15.27014
    32    N    7  S      Val( 2S)     1.40286      -0.59495
    33    N    7  px     Val( 2p)     1.55798      -0.17545
    34    N    7  py     Val( 2p)     1.14470      -0.02065
    35    N    7  pz     Val( 2p)     1.16951      -0.01837
 
    36    C    8  S      Cor( 1S)     1.99996     -11.00781
    37    C    8  S      Val( 2S)     1.10913      -0.23299
    38    C    8  px     Val( 2p)     0.97452       0.07437
    39    C    8  py     Val( 2p)     0.95264       0.10537
    40    C    8  pz     Val( 2p)     0.94371       0.11314
 
    41    C    9  S      Cor( 1S)     1.99996     -11.05269
    42    C    9  S      Val( 2S)     1.11202      -0.25861
    43    C    9  px     Val( 2p)     0.92723       0.08217
    44    C    9  py     Val( 2p)     0.87269       0.11855
    45    C    9  pz     Val( 2p)     0.91612       0.08575
 
    46    C   10  S      Cor( 1S)     1.99993     -11.01957
    47    C   10  S      Val( 2S)     1.09644      -0.22037
    48    C   10  px     Val( 2p)     0.99726       0.08293
    49    C   10  py     Val( 2p)     0.96174       0.08558
    50    C   10  pz     Val( 2p)     0.86994       0.11609
 
    51    C   11  S      Cor( 1S)     1.99994     -10.98469
    52    C   11  S      Val( 2S)     1.10369      -0.21908
    53    C   11  px     Val( 2p)     0.99479       0.07826
    54    C   11  py     Val( 2p)     0.99241       0.07922
    55    C   11  pz     Val( 2p)     0.99391       0.08146
 
    56    C   12  S      Cor( 1S)     1.99996     -10.98223
    57    C   12  S      Val( 2S)     1.09075      -0.20352
    58    C   12  px     Val( 2p)     1.00553       0.08508
    59    C   12  py     Val( 2p)     0.99346       0.08645
    60    C   12  pz     Val( 2p)     0.98468       0.08080
 
    61    C   13  S      Cor( 1S)     1.99998     -11.00737
    62    C   13  S      Val( 2S)     1.10474      -0.23090
    63    C   13  px     Val( 2p)     0.94114       0.10481
    64    C   13  py     Val( 2p)     0.95750       0.09994
    65    C   13  pz     Val( 2p)     0.94644       0.10451
 
    66    N   14  S      Cor( 1S)     1.99999     -15.23973
    67    N   14  S      Val( 2S)     1.42164      -0.58135
    68    N   14  px     Val( 2p)     1.27688      -0.04429
    69    N   14  py     Val( 2p)     1.49529      -0.13199
    70    N   14  pz     Val( 2p)     1.08596       0.03114
 
    71    C   15  S      Cor( 1S)     1.99994     -11.01010
    72    C   15  S      Val( 2S)     1.06919      -0.19138
    73    C   15  px     Val( 2p)     1.01428       0.07240
    74    C   15  py     Val( 2p)     0.91352       0.11453
    75    C   15  pz     Val( 2p)     0.96407       0.08965
 
    76    C   16  S      Cor( 1S)     1.99997     -10.97898
    77    C   16  S      Val( 2S)     1.08098      -0.19241
    78    C   16  px     Val( 2p)     1.01611       0.08709
    79    C   16  py     Val( 2p)     0.99254       0.08746
    80    C   16  pz     Val( 2p)     0.98514       0.09013
 
    81    C   17  S      Cor( 1S)     1.99996     -10.98262
    82    C   17  S      Val( 2S)     1.08583      -0.19803
    83    C   17  px     Val( 2p)     1.00896       0.08494
    84    C   17  py     Val( 2p)     0.99723       0.08712
    85    C   17  pz     Val( 2p)     0.97635       0.08872
 
    86    C   18  S      Cor( 1S)     1.99995     -10.97622
    87    C   18  S      Val( 2S)     1.09194      -0.19661
    88    C   18  px     Val( 2p)     1.00907       0.09513
    89    C   18  py     Val( 2p)     1.01047       0.08560
    90    C   18  pz     Val( 2p)     0.96406       0.09103
 
    91    C   19  S      Cor( 1S)     1.99994     -11.00072
    92    C   19  S      Val( 2S)     1.07179      -0.18535
    93    C   19  px     Val( 2p)     0.89026       0.12441
    94    C   19  py     Val( 2p)     0.99873       0.08306
    95    C   19  pz     Val( 2p)     1.00504       0.08125
 
    96    C   20  S      Cor( 1S)     1.99992     -10.98717
    97    C   20  S      Val( 2S)     1.09988      -0.21511
    98    C   20  px     Val( 2p)     0.97972       0.08029
    99    C   20  py     Val( 2p)     0.99143       0.07915
   100    C   20  pz     Val( 2p)     1.00267       0.08330
 
   101    C   21  S      Cor( 1S)     1.99994     -11.01130
   102    C   21  S      Val( 2S)     1.11095      -0.24197
   103    C   21  px     Val( 2p)     0.96936       0.07802
   104    C   21  py     Val( 2p)     0.99483       0.06366
   105    C   21  pz     Val( 2p)     1.00905       0.06370
 
   106    C   22  S      Cor( 1S)     1.99991     -11.11415
   107    C   22  S      Val( 2S)     1.05455      -0.26287
   108    C   22  px     Val( 2p)     0.89716       0.08018
   109    C   22  py     Val( 2p)     0.86217      -0.00164
   110    C   22  pz     Val( 2p)     0.78359       0.19012
 
   111    O   23  S      Cor( 1S)     1.99999     -20.10059
   112    O   23  S      Val( 2S)     1.80815      -1.06022
   113    O   23  px     Val( 2p)     1.73248      -0.27940
   114    O   23  py     Val( 2p)     1.37203      -0.17082
   115    O   23  pz     Val( 2p)     1.39765      -0.13647
 
   116    O   24  S      Cor( 1S)     1.99999     -20.21729
   117    O   24  S      Val( 2S)     1.72995      -1.02989
   118    O   24  px     Val( 2p)     1.28765      -0.12989
   119    O   24  py     Val( 2p)     1.71949      -0.31754
   120    O   24  pz     Val( 2p)     1.53009      -0.24317
 
   121    C   25  S      Cor( 1S)     1.99984     -11.04726
   122    C   25  S      Val( 2S)     1.07709      -0.22898
   123    C   25  px     Val( 2p)     0.84140       0.07834
   124    C   25  py     Val( 2p)     1.01051       0.04332
   125    C   25  pz     Val( 2p)     1.03653       0.03648
 
   126    C   26  S      Cor( 1S)     1.99992     -11.01798
   127    C   26  S      Val( 2S)     1.06508      -0.19818
   128    C   26  px     Val( 2p)     1.02734       0.05806
   129    C   26  py     Val( 2p)     1.04943       0.04716
   130    C   26  pz     Val( 2p)     0.87432       0.10171
 
   131    C   27  S      Cor( 1S)     1.99995     -10.98267
   132    C   27  S      Val( 2S)     1.08420      -0.18871
   133    C   27  px     Val( 2p)     0.97587       0.10199
   134    C   27  py     Val( 2p)     0.99995       0.08818
   135    C   27  pz     Val( 2p)     1.02716       0.08380
 
   136    C   28  S      Cor( 1S)     1.99991     -10.95543
   137    C   28  S      Val( 2S)     1.07952      -0.18381
   138    C   28  px     Val( 2p)     0.96169       0.11758
   139    C   28  py     Val( 2p)     0.97522       0.10770
   140    C   28  pz     Val( 2p)     0.96822       0.14496
 
   141    C   29  S      Cor( 1S)     1.99992     -10.94702
   142    C   29  S      Val( 2S)     1.07667      -0.17818
   143    C   29  px     Val( 2p)     1.00139       0.09306
   144    C   29  py     Val( 2p)     0.99852       0.08699
   145    C   29  pz     Val( 2p)     0.98698       0.12985
 
   146    C   30  S      Cor( 1S)     1.99994     -10.94627
   147    C   30  S      Val( 2S)     1.08451      -0.18141
   148    C   30  px     Val( 2p)     0.98372       0.10624
   149    C   30  py     Val( 2p)     0.98824       0.09727
   150    C   30  pz     Val( 2p)     0.97731       0.13417
 
   151    C   31  S      Cor( 1S)     1.99993     -10.93948
   152    C   31  S      Val( 2S)     1.07160      -0.17125
   153    C   31  px     Val( 2p)     1.00985       0.09392
   154    C   31  py     Val( 2p)     1.00919       0.09519
   155    C   31  pz     Val( 2p)     0.99783       0.12785
 
   156    C   32  S      Cor( 1S)     1.99985     -10.98901
   157    C   32  S      Val( 2S)     1.06051      -0.18533
   158    C   32  px     Val( 2p)     0.90105       0.11094
   159    C   32  py     Val( 2p)     0.94547       0.11723
   160    C   32  pz     Val( 2p)     0.97368       0.11884
 
   161    C   33  S      Cor( 1S)     1.99990     -10.95053
   162    C   33  S      Val( 2S)     1.08547      -0.19431
   163    C   33  px     Val( 2p)     0.98302       0.11487
   164    C   33  py     Val( 2p)     0.98324       0.09329
   165    C   33  pz     Val( 2p)     0.97033       0.12456
 
   166    N   34  S      Cor( 1S)     1.99998     -15.26641
   167    N   34  S      Val( 2S)     1.39590      -0.58665
   168    N   34  px     Val( 2p)     1.55083      -0.16710
   169    N   34  py     Val( 2p)     1.16859      -0.02591
   170    N   34  pz     Val( 2p)     1.15576      -0.00658
 
   171    C   35  S      Cor( 1S)     1.99996     -11.01341
   172    C   35  S      Val( 2S)     1.10340      -0.23666
   173    C   35  px     Val( 2p)     0.98949       0.05877
   174    C   35  py     Val( 2p)     0.94470       0.10808
   175    C   35  pz     Val( 2p)     0.95156       0.10486
 
   176    C   36  S      Cor( 1S)     1.99996     -11.05023
   177    C   36  S      Val( 2S)     1.11528      -0.25721
   178    C   36  px     Val( 2p)     0.93295       0.08043
   179    C   36  py     Val( 2p)     0.87298       0.12770
   180    C   36  pz     Val( 2p)     0.89986       0.09596
 
   181    C   37  S      Cor( 1S)     1.99991     -11.03482
   182    C   37  S      Val( 2S)     1.10929      -0.25178
   183    C   37  px     Val( 2p)     0.94535       0.07603
   184    C   37  py     Val( 2p)     0.99298       0.06087
   185    C   37  pz     Val( 2p)     0.88348       0.07712
 
   186    C   38  S      Cor( 1S)     1.99993     -10.97940
   187    C   38  S      Val( 2S)     1.10938      -0.21867
   188    C   38  px     Val( 2p)     0.98598       0.08569
   189    C   38  py     Val( 2p)     1.00098       0.08030
   190    C   38  pz     Val( 2p)     0.98849       0.08850
 
   191    C   39  S      Cor( 1S)     1.99996     -10.98203
   192    C   39  S      Val( 2S)     1.09056      -0.20284
   193    C   39  px     Val( 2p)     0.99096       0.08860
   194    C   39  py     Val( 2p)     1.00711       0.08270
   195    C   39  pz     Val( 2p)     0.98595       0.08140
 
   196    C   40  S      Cor( 1S)     1.99998     -11.01456
   197    C   40  S      Val( 2S)     1.09909      -0.22913
   198    C   40  px     Val( 2p)     0.96481       0.09421
   199    C   40  py     Val( 2p)     0.93492       0.10306
   200    C   40  pz     Val( 2p)     0.94246       0.10576
 
   201    N   41  S      Cor( 1S)     1.99999     -15.41973
   202    N   41  S      Val( 2S)     1.39280      -0.65961
   203    N   41  px     Val( 2p)     1.24434      -0.12376
   204    N   41  py     Val( 2p)     1.17157      -0.10822
   205    N   41  pz     Val( 2p)     1.15803      -0.11278
 
   206    C   42  S      Cor( 1S)     1.99992     -11.04086
   207    C   42  S      Val( 2S)     1.09120      -0.23778
   208    C   42  px     Val( 2p)     0.95954       0.07007
   209    C   42  py     Val( 2p)     0.96396       0.05538
   210    C   42  pz     Val( 2p)     0.93528       0.06300
 
   211    C   43  S      Cor( 1S)     1.99995     -10.99450
   212    C   43  S      Val( 2S)     1.08725      -0.20845
   213    C   43  px     Val( 2p)     1.03611       0.07184
   214    C   43  py     Val( 2p)     0.96134       0.08667
   215    C   43  pz     Val( 2p)     0.97876       0.08492
 
   216    C   44  S      Cor( 1S)     1.99994     -10.99034
   217    C   44  S      Val( 2S)     1.09158      -0.20840
   218    C   44  px     Val( 2p)     1.00019       0.08133
   219    C   44  py     Val( 2p)     1.00722       0.07832
   220    C   44  pz     Val( 2p)     0.96360       0.09029
 
   221    C   45  S      Cor( 1S)     1.99993     -10.98660
   222    C   45  S      Val( 2S)     1.09824      -0.20882
   223    C   45  px     Val( 2p)     1.02525       0.07967
   224    C   45  py     Val( 2p)     1.01199       0.08682
   225    C   45  pz     Val( 2p)     0.93194       0.08797
 
   226    C   46  S      Cor( 1S)     1.99993     -11.03393
   227    C   46  S      Val( 2S)     1.09454      -0.23532
   228    C   46  px     Val( 2p)     1.01711       0.05819
   229    C   46  py     Val( 2p)     0.82577       0.08926
   230    C   46  pz     Val( 2p)     1.01662       0.04865
 
   231    C   47  S      Cor( 1S)     1.99991     -10.97548
   232    C   47  S      Val( 2S)     1.10310      -0.20299
   233    C   47  px     Val( 2p)     0.97703       0.09835
   234    C   47  py     Val( 2p)     0.96930       0.10398
   235    C   47  pz     Val( 2p)     1.01107       0.09554
 
   236    C   48  S      Cor( 1S)     1.99994     -11.00378
[...]
                         Standard Origin              Atomic Origin
 NLMO      Total    Paramagnetic  Diamagnetic   Paramagnetic  Diamagnetic
  102       1.1111        1.2309      -0.1198         0.1436       0.9675
  105       1.6434       -0.2980       1.9415         0.5380       1.1054
  106      26.2703        0.0359      26.2344         0.4480      25.8223
  107       1.8225        3.6609      -1.8384        -0.0219       1.8444
  108       0.0211        0.7180      -0.6969        -1.1031       1.1242
 Sum       30.8684        5.3476      25.5207         0.0046      30.8637

 Contributions to Isotropic shielding for atom   95 (    31.1032 ppm):
                         Standard Origin              Atomic Origin
 NLMO      Total    Paramagnetic  Diamagnetic   Paramagnetic  Diamagnetic
   98      -0.1413        0.6103      -0.7516        -1.0519       0.9106
   99      -0.3512        0.0306      -0.3817        -1.2196       0.8685
  102       0.7779        2.2701      -1.4922        -0.1228       0.9007
  105       1.0966        1.0240       0.0726        -0.0741       1.1707
  106       1.9352        3.3234      -1.3882         0.1016       1.8336
  107      25.8072       -0.3172      26.1244         0.5847      25.2225
  109       0.0989        1.1213      -1.0224        -0.9086       1.0076
  116      -0.2076       -1.3145       1.1068        -0.5293       0.3217
 Sum       29.0157        6.7479      22.2678        -3.2201      32.2357

 Contributions to Isotropic shielding for atom   96 (    32.8403 ppm):
                         Standard Origin              Atomic Origin
 NLMO      Total    Paramagnetic  Diamagnetic   Paramagnetic  Diamagnetic
   97       2.0424       -1.6301       3.6726         1.0873       0.9551
  102       0.2900       -1.3121       1.6021        -0.2432       0.5332
  105       1.1321        0.1399       0.9922        -0.0049       1.1370
  106      -0.0108       -1.7258       1.7150        -1.0328       1.0220
  108      26.3562        0.5145      25.8417         0.2528      26.1034
  109       1.8774        0.7671       1.1103         0.0362       1.8412
 Sum       31.6874       -3.2466      34.9340         0.0955      31.5919

 Contributions to Isotropic shielding for atom   97 (    32.1539 ppm):
                         Standard Origin              Atomic Origin
 NLMO      Total    Paramagnetic  Diamagnetic   Paramagnetic  Diamagnetic
   97       1.1408        0.6729       0.4678         0.1704       0.9704
   98      -0.1810        0.7490      -0.9300        -1.1662       0.9852
  105       0.4897        2.8937      -2.4040        -0.5875       1.0772
  107       0.1713       -0.8608       1.0321        -0.9402       1.1115
  108       2.3399        0.1519       2.1881         0.6175       1.7225
  109      26.2875       -0.0215      26.3090         0.5412      25.7463
 Sum       30.2483        3.5853      26.6630        -1.3648      31.6131

 Contributions to Isotropic shielding for atom   98 (    31.2999 ppm):
                         Standard Origin              Atomic Origin
 NLMO      Total    Paramagnetic  Diamagnetic   Paramagnetic  Diamagnetic
   83      -0.3457        1.1340      -1.4797        -0.7425       0.3967
   85       1.1280       -0.2368       1.3648         0.3270       0.8010
   87      -0.2614        0.1955      -0.4568        -1.0978       0.8364
   89      -0.1703       -0.1331      -0.0372        -1.0551       0.8847
  110       0.5289        2.0666      -1.5377        -0.1929       0.7218
  111      25.5658       -0.1715      25.7372         0.6804      24.8854
  112       1.5964        2.9202      -1.3238        -0.3236       1.9200
  113       0.0742        0.2435      -0.1693        -0.9285       1.0027
  118       0.5600       -0.9185       1.4785        -0.2717       0.8316
  120       1.2383       -0.3935       1.6318         0.3924       0.8459
  121      -0.3009       -2.9582       2.6573        -1.3423       1.0414
  123       0.3069       -0.7558       1.0627        -0.4487       0.7556
  124       0.0340       -1.5612       1.5952        -0.4195       0.4535
  191      -0.5288        1.2223      -1.7511         0.4418      -0.9706
  195       0.0286        0.0938      -0.0652         1.0489      -1.0203
 Sum       29.4540        0.7473      28.7067        -3.9320      33.3860

 Contributions to Isotropic shielding for atom   99 (    32.6706 ppm):
                         Standard Origin              Atomic Origin
 NLMO      Total    Paramagnetic  Diamagnetic   Paramagnetic  Diamagnetic
   71      -1.1243        0.3117      -1.4360        -2.1267       1.0025
   80      -0.0680        1.2911      -1.3591        -1.1630       1.0950
   85       1.8951       -1.4666       3.3618         1.2627       0.6324
   89      -0.0941        0.1152      -0.2093        -1.0385       0.9445
  110       0.6205        1.2371      -0.6166        -0.1829       0.8034
  111       1.7491        3.1827      -1.4336        -0.1759       1.9250
  112      26.1012        0.0966      26.0046         0.6423      25.4589
  121       0.0424       -1.2126       1.2550        -0.7597       0.8020
 Sum       29.1220        3.5551      25.5668        -3.5418      32.6637

 Contributions to Isotropic shielding for atom  100 (    31.0391 ppm):
                         Standard Origin              Atomic Origin
 NLMO      Total    Paramagnetic  Diamagnetic   Paramagnetic  Diamagnetic
  100      -0.3874        1.1759      -1.5633        -1.1569       0.7696
  101      -0.0663        0.6213      -0.6876        -1.0848       1.0185
  110       0.4336        1.7413      -1.3077        -0.5518       0.9854
  111       0.0960        0.3581      -0.2620        -0.9382       1.0342
  113      25.9836        0.3626      25.6210         1.1162      24.8673
  114       1.6678        0.2522       1.4156        -0.0193       1.6871
  195       0.3219       -1.0127       1.3346         1.1443      -0.8224
 Sum       28.0492        3.4986      24.5506        -1.4905      29.5398

 Contributions to Isotropic shielding for atom  101 (    31.8902 ppm):
                         Standard Origin              Atomic Origin
 NLMO      Total    Paramagnetic  Diamagnetic   Paramagnetic  Diamagnetic
   71      -0.1754       -0.0925      -0.0830        -1.3060       1.1305
   84      -0.2458        0.4680      -0.7138        -1.0632       0.8174
   85       0.3052       -0.6984       1.0036        -0.4758       0.7810
  100       1.8103       -1.7271       3.5374         1.3573       0.4530
  110       1.3127       -1.4834       2.7961         0.4733       0.8394
  113       1.1406        1.6175      -0.4769        -0.6997       1.8403
  114      26.3355        0.9125      25.4229         0.6389      25.6965
 Sum       30.4830       -1.0033      31.4863        -1.0751      31.5581

 Contributions to Isotropic shielding for atom  102 (    29.8832 ppm):
                         Standard Origin              Atomic Origin
 NLMO      Total    Paramagnetic  Diamagnetic   Paramagnetic  Diamagnetic
   87       0.3366       -0.7472       1.0839         0.2306       0.1060
   89      -0.3030        0.0313      -0.3342        -1.2011       0.8981
   97      -0.2720        1.3371      -1.6091        -1.0962       0.8241
   98       1.4650       -0.2538       1.7188         0.5605       0.9045
  107      -0.2080       -1.3076       1.0995        -0.7717       0.5637
  115       0.2251        2.4899      -2.2648        -0.6513       0.8764
  116      25.3528       -0.1702      25.5230         0.7119      24.6409
  117       1.6374        2.7947      -1.1574        -0.2811       1.9185
  118      -0.4312        0.2091      -0.6403        -1.3819       0.9506
  122       1.5181       -2.1336       3.6517         0.3088       1.2094
  124       0.1802       -1.1913       1.3715        -0.4646       0.6448
  125       0.1328       -1.1313       1.2640        -0.5467       0.6794
  193      -1.2711        1.1024      -2.3735         0.1375      -1.4085
  194      -0.3641       -1.3264       0.9623        -0.8143       0.4501
  195      -0.3267        0.7953      -1.1220         0.6399      -0.9666
 Sum       27.6719        0.4986      27.1733        -4.6196      32.2915

 Contributions to Isotropic shielding for atom  103 (    31.7863 ppm):
                         Standard Origin              Atomic Origin
 NLMO      Total    Paramagnetic  Diamagnetic   Paramagnetic  Diamagnetic
   86      -0.0974        0.3361      -0.4335        -1.0096       0.9122
   87       0.4326       -0.9162       1.3488         0.1502       0.2825
   94      -0.2294        0.9971      -1.2265        -1.1926       0.9632
   97      -0.1069        0.9588      -1.0657        -0.7133       0.6064
   98       1.8966       -1.0829       2.9795         0.9188       0.9778
  115       0.7554        1.6453      -0.8899        -0.3551       1.1105
  116       1.7080        2.7861      -1.0781        -0.3337       2.0417
  117      26.6224       -0.1032      26.7256         0.5258      26.0966
  118      -0.2933        0.8364      -1.1297        -0.3891       0.0959
  119      -0.1357       -0.9754       0.8397        -1.2748       1.1391
  122       0.8478       -1.2767       2.1245        -0.2695       1.1173
  193      -0.7000        0.4464      -1.1465         0.1555      -0.8555
 Sum       30.7001        3.6518      27.0483        -3.7875      34.4876

 Contributions to Isotropic shielding for atom  104 (    31.3703 ppm):
                         Standard Origin              Atomic Origin
 NLMO      Total    Paramagnetic  Diamagnetic   Paramagnetic  Diamagnetic
   81      -0.4986        1.1383      -1.6370        -1.1945       0.6959
   86      -0.2260        1.0664      -1.2924        -1.3537       1.1277
   87       1.8566       -0.4757       2.3323         0.9327       0.9239
   98       0.2591       -0.7616       1.0207         0.1700       0.0890
  115       1.5740        0.9352       0.6388         0.3073       1.2667
  117      -0.2472        0.1011      -0.3483        -1.3961       1.1488
  118       0.4372        4.5946      -4.1574        -0.6779       1.1150
  119      25.9800       -0.4866      26.4666         0.2833      25.6968
  121       0.5743       -0.7621       1.3363        -0.2504       0.8246
  122       0.7186       -1.5562       2.2748        -0.6230       1.3415
  126       0.1566       -0.9507       1.1073        -0.5000       0.6566
  127      -0.2658       -2.2434       1.9775        -0.7544       0.4886
 Sum       30.3186        0.5992      29.7194        -5.0566      35.3752

 Contributions to Isotropic shielding for atom  105 (    30.5570 ppm):
                         Standard Origin              Atomic Origin
 NLMO      Total    Paramagnetic  Diamagnetic   Paramagnetic  Diamagnetic
  120      -1.0139        0.8355      -1.8494        -1.9175       0.9036
  121      -0.5038        1.7550      -2.2588        -2.0490       1.5452
  122      -1.6803        1.6916      -3.3718        -2.5710       0.8907
  123       2.7514       -4.6049       7.3563         1.3487       1.4027
  124      26.1532        0.9675      25.1858         1.0567      25.0965
  125       1.4221        2.3023      -0.8802        -0.6139       2.0361
  126       1.0895        1.8501      -0.7606        -0.7749       1.8644
  191       0.4139       -1.3001       1.7139         1.1663      -0.7524
  193       1.0322       -0.1719       1.2040         1.0743      -0.0422
 Sum       29.6643        3.3251      26.3391        -3.2804      32.9447

 Contributions to Isotropic shielding for atom  106 (    30.6315 ppm):
                         Standard Origin              Atomic Origin
 NLMO      Total    Paramagnetic  Diamagnetic   Paramagnetic  Diamagnetic
  120      -0.6815        0.3617      -1.0432        -1.3098       0.6282
  121      -0.1380        1.1863      -1.3243        -1.1821       1.0441
  122      -0.6219        0.4880      -1.1099        -0.6640       0.0420
  123       1.1378        0.6035       0.5343        -0.9493       2.0871
  124       1.1728        1.7101      -0.5373        -0.8277       2.0005
  125      26.1138        0.3510      25.7627         0.8258      25.2880
  126       0.5938        3.7768      -3.1831        -1.3807       1.9745
  191       0.2618       -0.8185       1.0803         0.6382      -0.3763
  193       1.0746       -0.9906       2.0651         1.5426      -0.4680
  194       1.0567        0.4770       0.5798         0.7928       0.2639
 Sum       29.9699        7.1455      22.8244        -2.5142      32.4840

 Contributions to Isotropic shielding for atom  107 (    30.5796 ppm):
                         Standard Origin              Atomic Origin
 NLMO      Total    Paramagnetic  Diamagnetic   Paramagnetic  Diamagnetic
  120      -1.3501        0.8987      -2.2488        -2.2391       0.8890
  121      -0.5432        2.2285      -2.7716        -2.1026       1.5594
  122      -2.0334        1.4633      -3.4967        -2.8086       0.7752
  123       1.5463       -0.5759       2.1222         0.0426       1.5037
  124       1.3300        1.4206      -0.0905        -0.5411       1.8711
  125       1.1880        4.4104      -3.2224        -0.8430       2.0309
  126      26.6130        0.6927      25.9203         1.2502      25.3628
  191       0.6011       -1.7128       2.3139         1.3687      -0.7676
  192       0.8283        1.0451      -0.2167         1.0884      -0.2600
  193       1.5405       -1.1291       2.6697         1.5892      -0.0487
 Sum       29.7205        8.7414      20.9792        -3.1953      32.9159

 Contributions to Isotropic shielding for atom  108 (    31.4460 ppm):
                         Standard Origin              Atomic Origin
 NLMO      Total    Paramagnetic  Diamagnetic   Paramagnetic  Diamagnetic
   76      -0.4104       -0.0816      -0.3288        -1.2536       0.8432
   81      -0.3643        0.7407      -1.1050        -1.0845       0.7202
   82       1.1847        0.0753       1.1094        -0.0226       1.2072
   87      -0.2043        0.8650      -1.0693        -1.1025       0.8982
  121       0.0523       -0.8778       0.9302        -1.0137       1.0660
  127      26.0595        0.1960      25.8635         0.6296      25.4298
  128       1.5252        3.7059      -2.1807        -0.4664       1.9916
  129       1.7867        0.4433       1.3434        -0.0269       1.8136
 Sum       29.6293        5.0667      24.5626        -4.3405      33.9698

 Contributions to Isotropic shielding for atom  109 (    30.7131 ppm):
                         Standard Origin              Atomic Origin
 NLMO      Total    Paramagnetic  Diamagnetic   Paramagnetic  Diamagnetic
   75      -0.5253        0.5186      -1.0439        -1.2353       0.7101
   76      -0.7574        0.1463      -0.9037        -2.1156       1.3582
   79      -0.4416        0.6582      -1.0999        -1.0743       0.6327
   82       1.1032        0.5511       0.5521        -0.1038       1.2070
  127       1.5711        3.6574      -2.0863        -0.3978       1.9689
  128      25.9767        0.1188      25.8579         0.6898      25.2870
  129       1.7510        0.8353       0.9157        -0.0484       1.7994
 Sum       28.6778        6.4857      22.1920        -4.2854      32.9632

 Contributions to Isotropic shielding for atom  110 (    31.8581 ppm):
                         Standard Origin              Atomic Origin
 NLMO      Total    Paramagnetic  Diamagnetic   Paramagnetic  Diamagnetic
   76      -0.5313       -0.2754      -0.2559        -1.7133       1.1820
   82       1.9295       -2.9732       4.9026         1.1569       0.7725
   86      -0.1810        0.5566      -0.7377        -1.2538       1.0727
  127       1.8601        1.2598       0.6002        -0.0426       1.9026
  128       1.8355        1.8272       0.0083        -0.0663       1.9018
  129      26.4096        0.8187      25.5909         0.6889      25.7208
 Sum       31.3223        1.2137      30.1086        -1.2301      32.5524
 
 1\1\GINC-PCSN02\SP\RHF\STO-3G\C45H56N4O5\ABENIDD\30-May-2024\0\\# nmr=
 giao hf/sto-3g pop=nbo geom=connectivity\\Pleiokomenine_C_2\\0,1\C,0,0
 .,0.,0.\C,0,1.4024,0.,0.\C,0,2.0896,1.232,0.\C,0,1.4003,2.452,-0.0471\
 C,0,0.0178,2.4401,-0.1073\C,0,-0.6666,1.2138,-0.0671\N,0,-0.8665,3.544
 7,-0.2249\C,0,-2.1504,1.4835,-0.0546\C,0,-2.1061,2.9067,-0.7377\C,0,-3
 .1087,0.5779,-0.8423\C,0,-1.9742,2.7185,-2.3134\C,0,-3.1841,1.9742,-2.
 8893\C,0,-4.0548,1.4589,-1.7278\N,0,-3.7664,-0.2425,0.1754\C,0,-4.9608
 ,-0.9443,-0.2703\C,0,-5.9356,-0.1041,-1.0945\C,0,-5.2235,0.6076,-2.244
 7\C,0,-2.6069,1.3478,1.4177\C,0,-3.907,0.5543,1.3844\C,0,-4.5819,2.743
 9,-1.0023\C,0,-3.4238,3.6807,-0.5582\C,0,-3.6776,4.3026,0.8039\O,0,-4.
 5116,3.9115,1.611\O,0,-2.9034,5.4097,0.98\C,0,-3.0581,6.0354,2.2536\C,
 0,-0.333,4.7571,-0.8255\C,0,2.1777,-1.3038,0.0403\C,0,1.6767,-2.3633,-
 0.9234\C,0,1.4566,-2.0503,-2.2734\C,0,1.4374,-3.678,-0.4662\C,0,0.9294
 ,-4.6675,-1.3184\C,0,0.6472,-4.3329,-2.6287\C,0,0.9354,-3.0314,-3.0994
 \N,0,0.0245,-5.1271,-3.6308\C,0,0.6209,-2.9999,-4.5781\C,0,-0.5123,-4.
 0854,-4.537\C,0,0.048,-1.7753,-5.2693\C,0,-1.8262,-3.4632,-3.8286\C,0,
 -2.2412,-2.1322,-4.4616\C,0,-1.4096,-1.9069,-5.7343\N,0,0.9663,-1.4968
 ,-6.4486\C,0,0.7067,-0.1009,-6.9093\C,0,-0.7484,-0.0197,-7.4142\C,0,-1
 .8013,-0.5804,-6.4301\C,0,2.0097,-3.1897,-5.253\C,0,2.2996,-1.814,-5.8
 79\C,0,-1.6455,-3.189,-6.6045\C,0,-1.0414,-4.4797,-5.9348\C,0,-0.1,-5.
 2724,-6.8296\O,0,0.8338,-5.9644,-6.4457\O,0,-0.5381,-5.2487,-8.1234\C,
 0,0.3234,-5.922,-9.0393\C,0,-0.7723,-6.2654,-3.2176\O,0,0.8095,-2.3273
 ,-7.5303\H,0,-0.5632,-0.9288,0.0503\H,0,3.1772,1.2483,0.0352\H,0,1.956
 8,3.3822,-0.045\H,0,-2.5503,-0.1057,-1.4961\H,0,-1.0612,2.1729,-2.5834
 \H,0,-1.8872,3.6926,-2.8118\H,0,-3.7609,2.6429,-3.5406\H,0,-2.8401,1.1
 495,-3.5245\H,0,-4.635,-1.7911,-0.8885\H,0,-5.4842,-1.3918,0.5834\H,0,
 -6.7171,-0.7555,-1.5034\H,0,-6.4442,0.6215,-0.4506\H,0,-4.8515,-0.1469
 ,-2.9503\H,0,-5.9406,1.2258,-2.7976\H,0,-1.8853,0.7601,2.0038\H,0,-2.6
 989,2.2931,1.9511\H,0,-3.9961,-0.0815,2.2718\H,0,-4.7772,1.2125,1.3673
 \H,0,-5.2435,2.4878,-0.1745\H,0,-5.2226,3.3077,-1.6957\H,0,-3.4364,4.5
 374,-1.2495\H,0,-2.8207,5.3335,3.0593\H,0,-2.3564,6.8723,2.307\H,0,-4.
 074,6.4268,2.3653\H,0,0.162,4.5583,-1.7828\H,0,0.3869,5.2328,-0.151\H,
 0,-1.13,5.4846,-1.0067\H,0,3.2351,-1.1239,-0.1921\H,0,2.1402,-1.6773,1
 .0715\H,0,1.6735,-1.0566,-2.6509\H,0,1.6302,-3.9362,0.5734\H,0,0.7389,
 -5.6634,-0.936\H,0,0.1553,-0.9022,-4.6083\H,0,-1.7071,-3.3112,-2.7489\
 H,0,-2.6563,-4.1784,-3.913\H,0,-3.3158,-2.1397,-4.6816\H,0,-2.0792,-1.
 3189,-3.7431\H,0,0.8907,0.5708,-6.0645\H,0,1.4237,0.1109,-7.7095\H,0,-
 0.9909,1.0231,-7.6496\H,0,-0.8339,-0.5727,-8.3579\H,0,-1.9572,0.1875,-
 5.6607\H,0,-2.762,-0.6917,-6.9472\H,0,1.9861,-3.9415,-6.0409\H,0,2.825
 ,-3.4735,-4.5773\H,0,3.038,-1.8413,-6.6854\H,0,2.5457,-1.0439,-5.141\H
 ,0,-1.3145,-3.0451,-7.6347\H,0,-2.7304,-3.3422,-6.704\H,0,-1.8781,-5.1
 817,-5.7968\H,0,1.3401,-5.5198,-8.9842\H,0,-0.0586,-5.7534,-10.05\H,0,
 0.32,-6.9986,-8.8429\H,0,-1.2293,-6.7473,-4.0875\H,0,-0.1446,-7.0199,-
 2.7316\H,0,-1.5725,-5.978,-2.527\\Version=ES64L-G16RevB.01\State=1-A\H
 F=-2300.2009271\RMSD=3.912e-09\Dipole=-0.6732568,1.60909,0.3229402\Qua
 drupole=3.4247827,7.9567097,-11.3814924,9.2395237,6.4704857,-8.288173\
 PG=C01 [X(C45H56N4O5)]\\@


      TO SUSPECT YOUR OWN MORTALITY IS TO KNOW THE BEGINNING OF TERROR.
      TO LEARN IRREFUTABLY THAT YOU ARE MORTAL IS TO KNOW THE END
      OF TERROR.

                                                  -- JESSICA
                                                     CHILDREN OF DUNE
                                                     BY FRANK HERBERT
 Job cpu time:       0 days  0 hours 12 minutes 12.2 seconds.
 Elapsed time:       0 days  0 hours  2 minutes  3.5 seconds.
 File lengths (MBytes):  RWF=     67 Int=      0 D2E=      0 Chk=     10 Scr=      1
 Normal termination of Gaussian 16 at Thu May 30 10:09:09 2024.
